# vtk DataFile Version 3.0
Point representing Sub_cellular elem model
ASCII

DATASET UNSTRUCTURED_GRID
POINTS 3657 float
-55.01226 -3.08261 52.05279 
-54.99596 3.22640 52.08348 
-54.61899 -9.34280 51.71950 
-54.61159 9.52273 51.77032 
-51.94372 0.03517 55.71496 
-51.66837 -6.17428 55.47170 
-51.69179 6.26105 55.46214 
-51.76140 -17.33691 52.56412 
-51.67723 17.43304 52.64207 
-51.30109 -12.28406 54.94598 
-51.21043 12.41498 55.05171 
-48.31723 -3.08053 58.77982 
-48.33748 3.13450 58.77381 
-48.01802 -9.27587 58.45740 
-48.01279 9.28481 58.48585 
-48.07107 -20.31978 55.61054 
-48.02273 20.41106 55.65185 
-47.66496 -15.19955 57.57227 
-47.61056 15.23400 57.64892 
-48.39331 -25.15116 52.77985 
-48.33106 25.36836 52.97509 
-48.24103 -30.07145 49.92478 
-48.13159 30.29544 50.06748 
-44.82904 -0.01021 61.68944 
-44.72613 -6.19938 61.61551 
-44.71975 6.19496 61.63665 
-44.30330 -12.14938 60.97991 
-44.28098 12.16902 61.04765 
-43.94676 -18.10145 60.08106 
-43.91879 18.10135 60.15175 
-44.26794 -23.21413 57.89163 
-44.22453 23.27745 57.98815 
-44.56245 -28.25722 55.53195 
-44.48285 28.39435 55.64009 
-43.63085 -33.84759 53.01163 
-43.47046 34.01728 53.05424 
-41.15268 -3.07521 64.23255 
-41.12943 3.09399 64.25356 
-40.86705 -9.07319 63.92583 
-40.85233 9.04465 63.93232 
-40.40934 -14.90928 63.27225 
-40.39943 14.91405 63.30996 
-40.00123 -20.76238 62.10111 
-39.98646 20.81344 62.14847 
-40.34063 -25.88743 60.06576 
-40.26637 25.96612 60.15649 
-39.61341 -31.53698 57.93860 
-39.53820 31.60480 58.04934 
-37.57015 0.00486 66.71457 
-37.37673 -5.93599 66.46096 
-37.32367 5.92977 66.49815 
-36.93290 -11.87303 66.18224 
-36.93548 11.87917 66.20153 
-38.59264 -37.04957 55.43107 
-38.49413 37.14700 55.63188 
-36.45798 -17.68626 65.23993 
-36.47933 17.67556 65.26903 
-36.07403 -23.41451 63.99041 
-36.04038 23.41660 64.06187 
-37.56196 -42.05505 51.93079 
-37.45853 42.26137 52.15354 
-35.41875 -29.00318 62.11726 
-35.32770 29.02886 62.23220 
-34.56888 -34.62841 60.00247 
-34.48104 34.64377 60.13175 
-33.00239 -3.14810 69.05958 
-32.97406 3.10490 69.08043 
-32.62764 -9.09053 68.76265 
-32.63657 9.10581 68.79934 
-32.04366 -14.93589 68.21578 
-32.03236 14.91646 68.25025 
-33.40684 -39.98348 57.09619 
-33.33891 40.04142 57.21115 
-31.62604 -20.76393 67.14156 
-31.62206 20.70906 67.19191 
-31.90324 -25.90073 65.35719 
-31.84969 25.86568 65.44797 
-31.09644 -31.50543 63.42961 
-31.03242 31.51574 63.51603 
-32.27279 -45.06959 53.86902 
-32.01846 45.20119 54.07689 
-30.15557 -37.01037 61.02857 
-30.05253 37.05243 61.10309 
-28.31679 -0.01060 71.29168 
-28.28251 -6.28354 71.22478 
-28.26472 6.26550 71.24100 
-27.64015 -12.27364 70.69070 
-27.59169 12.22664 70.70562 
-28.91643 -42.33737 58.13310 
-28.83184 42.36272 58.24011 
-27.21779 -18.07874 69.94535 
-27.18968 18.02412 69.99523 
-27.40942 -23.21451 68.37979 
-27.37866 23.19496 68.43603 
-27.63988 -28.35881 66.61360 
-27.60318 28.37130 66.67008 
-26.69510 -33.87862 64.41068 
-26.66342 33.89645 64.49411 
-27.48206 -47.50763 54.62306 
-27.33516 47.57515 54.67600 
-25.64766 -39.37021 61.94693 
-25.56666 39.40757 62.01994 
-26.16705 -51.89461 50.21078 
-25.95697 52.05540 50.32737 
-23.53894 -3.16114 73.13795 
-23.49482 3.14640 73.12678 
-23.26989 -9.36748 72.75230 
-23.26527 9.38162 72.75918 
-22.92880 -20.42410 70.93089 
-22.92908 20.41449 70.97896 
-22.71423 -15.21900 72.10779 
-22.66043 15.23406 72.14416 
-23.13505 -25.60777 69.34220 
-23.07611 25.60862 69.37445 
-23.21632 -30.65910 67.35416 
-23.18190 30.69163 67.39280 
-24.16696 -44.69699 58.73306 
-24.07214 44.76398 58.78345 
-22.21953 -36.13551 65.06519 
-22.13428 36.17427 65.11974 
-22.69916 -49.87400 54.94596 
-22.56677 49.93358 55.02889 
-20.83248 -41.61136 62.26830 
-20.73977 41.61797 62.34899 
-21.01710 -54.28938 50.54197 
-20.79377 54.38323 50.66700 
-18.71618 -0.01160 74.85075 
-18.56411 -6.24861 74.52985 
-18.58406 6.22771 74.52783 
-18.47918 -17.62132 73.01328 
-18.41942 17.61138 73.04911 
-18.65186 -22.82712 71.78555 
-18.62773 22.81850 71.81661 
-18.33924 -12.41155 74.03428 
-18.29835 12.38042 74.05905 
-18.70764 -27.90297 69.96861 
-18.70027 27.89942 70.00163 
-18.78568 -32.90979 67.92836 
-18.74812 32.94010 67.96033 
-19.28395 -46.88723 58.92399 
-19.22819 46.89750 58.98877 
-17.45076 -38.35530 65.36637 
-17.33748 38.36335 65.42725 
-17.67117 -51.81443 54.99786 
-17.54509 51.87223 55.05639 
-15.94674 -43.75775 62.51304 
-15.86725 43.78309 62.55738 
-13.97597 -3.17720 75.81636 
-13.94435 3.15666 75.85064 
-15.85759 -56.24056 50.57492 
-15.61909 56.33683 50.71003 
-13.98083 -19.92023 73.65168 
-13.97142 19.92095 73.66665 
-13.79836 -9.43260 75.41545 
-13.80120 9.37673 75.42179 
-14.04979 -25.08723 72.14219 
-14.00877 25.05336 72.17832 
-13.79719 -14.70048 74.72354 
-13.75863 14.65875 74.74731 
-14.04370 -30.16524 70.25572 
-14.02893 30.12667 70.30169 
-14.24514 -34.96526 67.98808 
-14.17524 34.93917 68.04521 
-14.29435 -48.81223 58.93755 
-14.25166 48.84009 58.97399 
-12.72684 -40.35173 65.33651 
-12.69342 40.36489 65.33706 
-12.68225 -53.67283 54.95480 
-12.51095 53.72408 54.99448 
-11.16175 -45.60768 62.14836 
-11.03411 45.63877 62.21283 
-9.29951 -0.00246 76.71564 
-9.24100 -11.67041 75.97858 
-9.22944 11.66735 75.96791 
-9.23968 -6.34304 76.61519 
-9.19738 6.33273 76.62460 
-9.31598 -16.88828 75.23055 
-9.29332 16.88465 75.24290 
-9.41000 -22.07537 73.88362 
-9.34291 22.08106 73.90218 
-9.45714 -32.08978 70.22257 
-9.39854 32.12967 70.25322 
-9.36383 -27.25848 72.33151 
-9.32648 27.25495 72.35059 
-9.56015 -36.91741 67.95931 
-9.52538 36.97368 67.95497 
-9.84763 -57.28002 51.47728 
-9.59640 57.29549 51.46505 
-9.45558 -50.61278 58.50721 
-9.39456 50.60545 58.55656 
-7.99449 -42.19270 64.96535 
-7.91585 42.22317 64.97693 
-6.30839 -47.35581 61.78212 
-6.16012 47.40316 61.78175 
-6.46459 -54.20288 55.59296 
-6.33102 54.19482 55.63416 
-4.58915 -3.17086 77.20592 
-4.55373 3.19437 77.21138 
-4.63242 -8.55844 76.82131 
-4.60647 8.55286 76.82447 
-4.63612 -13.88257 76.15688 
-4.61577 13.86113 76.18276 
-4.69827 -18.99948 75.19778 
-4.67826 19.01893 75.19780 
-4.69407 -24.13093 73.80176 
-4.62526 24.16163 73.79978 
-4.68622 -29.06194 72.04215 
-4.66942 29.02969 72.04170 
-4.75924 -33.87911 69.89761 
-4.73006 33.89387 69.90234 
-4.82166 -38.64797 67.43400 
-4.77054 38.68005 67.43020 
-3.40618 -57.65514 52.14768 
-3.20472 57.67121 52.12959 
-3.24078 -50.92815 59.03512 
-3.13048 50.95376 58.99465 
-3.12521 -43.83605 64.39093 
-3.02069 43.85428 64.39228 
-0.06396 -54.42375 56.04132 
-0.05805 -47.49919 61.87568 
-0.03515 -40.25343 66.79406 
-0.00946 -35.52412 69.27863 
0.00918 -30.75433 71.59571 
-0.04182 -25.82640 73.39669 
-0.00528 -20.96115 74.96991 
0.00082 -15.88967 76.00398 
-0.00092 -10.71577 76.86264 
-0.03204 -5.34237 77.26756 
-0.00000 0.00000 77.53047 
0.03204 5.34237 77.26756 
0.00092 10.71577 76.86264 
-0.00082 15.88967 76.00398 
0.00528 20.96115 74.96991 
0.04182 25.82640 73.39669 
-0.00918 30.75433 71.59571 
0.00946 35.52412 69.27863 
0.03515 40.25343 66.79406 
0.05805 47.49919 61.87568 
0.06396 54.42375 56.04132 
3.02069 -43.85428 64.39228 
3.12521 43.83605 64.39093 
3.13048 -50.95376 58.99465 
3.24078 50.92815 59.03512 
3.20472 -57.67121 52.12959 
3.40618 57.65514 52.14768 
4.77054 -38.68005 67.43020 
4.82166 38.64797 67.43400 
4.73006 -33.89387 69.90234 
4.75924 33.87911 69.89761 
4.66942 -29.02969 72.04170 
4.68622 29.06194 72.04215 
4.62526 -24.16163 73.79978 
4.69407 24.13093 73.80176 
4.67826 -19.01893 75.19780 
4.69827 18.99948 75.19778 
4.61577 -13.86113 76.18276 
4.63612 13.88257 76.15688 
4.60647 -8.55286 76.82447 
4.63242 8.55844 76.82131 
4.55373 -3.19437 77.21138 
4.58915 3.17086 77.20592 
6.33102 -54.19482 55.63416 
6.46459 54.20288 55.59296 
6.16012 -47.40316 61.78175 
6.30839 47.35581 61.78212 
7.91585 -42.22317 64.97693 
7.99449 42.19270 64.96535 
9.39456 -50.60545 58.55656 
9.45558 50.61278 58.50721 
9.59640 -57.29549 51.46505 
9.84763 57.28002 51.47728 
9.52538 -36.97368 67.95497 
9.56015 36.91741 67.95931 
9.32648 -27.25495 72.35059 
9.36383 27.25848 72.33151 
9.39854 -32.12967 70.25322 
9.45714 32.08978 70.22257 
9.34291 -22.08106 73.90218 
9.41000 22.07537 73.88362 
9.29332 -16.88465 75.24290 
9.31598 16.88828 75.23055 
9.19738 -6.33273 76.62460 
9.23968 6.34304 76.61519 
9.22944 -11.66735 75.96791 
9.24100 11.67041 75.97858 
9.29951 0.00246 76.71564 
11.03411 -45.63877 62.21283 
11.16175 45.60768 62.14836 
12.51095 -53.72408 54.99448 
12.68225 53.67283 54.95480 
12.69342 -40.36489 65.33706 
12.72684 40.35173 65.33651 
14.25166 -48.84009 58.97399 
14.29435 48.81223 58.93755 
14.17524 -34.93917 68.04521 
14.24514 34.96526 67.98808 
14.02893 -30.12667 70.30169 
14.04370 30.16524 70.25572 
13.75863 -14.65875 74.74731 
13.79719 14.70048 74.72354 
14.00877 -25.05336 72.17832 
14.04979 25.08723 72.14219 
13.80120 -9.37673 75.42179 
13.79836 9.43260 75.41545 
13.97142 -19.92095 73.66665 
13.98083 19.92023 73.65168 
15.61909 -56.33683 50.71003 
15.85759 56.24056 50.57492 
13.94435 -3.15666 75.85064 
13.97597 3.17720 75.81636 
15.86725 -43.78309 62.55738 
15.94674 43.75775 62.51304 
17.54509 -51.87223 55.05639 
17.67117 51.81443 54.99786 
17.33748 -38.36335 65.42725 
17.45076 38.35530 65.36637 
19.22819 -46.89750 58.98877 
19.28395 46.88723 58.92399 
18.74812 -32.94010 67.96033 
18.78568 32.90979 67.92836 
18.70027 -27.89942 70.00163 
18.70764 27.90297 69.96861 
18.29835 -12.38042 74.05905 
18.33924 12.41155 74.03428 
18.62773 -22.81850 71.81661 
18.65186 22.82712 71.78555 
18.41942 -17.61138 73.04911 
18.47918 17.62132 73.01328 
18.58406 -6.22771 74.52783 
18.56411 6.24861 74.52985 
18.71618 0.01160 74.85075 
20.79377 -54.38323 50.66700 
21.01710 54.28938 50.54197 
20.73977 -41.61797 62.34899 
20.83248 41.61136 62.26830 
22.56677 -49.93358 55.02889 
22.69916 49.87400 54.94596 
22.13428 -36.17427 65.11974 
22.21953 36.13551 65.06519 
24.07214 -44.76398 58.78345 
24.16696 44.69699 58.73306 
23.18190 -30.69163 67.39280 
23.21632 30.65910 67.35416 
23.07611 -25.60862 69.37445 
[...]
CELL_DATA 40900
SCALARS Strain double 1
LOOKUP_TABLE default
0.01426
0.01027
-0.04189
-0.03324
0.00924
-0.04316
-0.03189
-0.05613
-0.02908
-0.05523
-0.02882
0.01790
0.01716
0.00052
0.00229
0.02595
0.00103
0.00086
0.02566
-0.00010
0.00154
-0.00125
-0.05296
-0.09983
-0.00223
-0.05338
-0.09971
-0.00857
0.00801
-0.00811
0.01043
0.01661
0.01717
0.04074
0.03350
0.01803
0.03863
0.03428
0.01918
0.03764
0.03178
0.01814
0.03727
0.03269
0.01184
-0.01247
-0.06844
0.00235
0.00923
-0.01174
-0.06841
0.00125
-0.00560
0.01436
-0.00606
0.01731
-0.02760
-0.09522
-0.04708
-0.02819
-0.09445
-0.04552
-0.11233
-0.06688
-0.11235
-0.06647
0.01160
0.01239
0.06245
0.06122
0.01397
0.06462
0.05182
0.01392
0.06453
0.05202
0.01377
0.05882
0.05960
0.01345
0.05826
0.06123
-0.00063
-0.03015
0.06024
-0.00333
-0.02892
0.06026
-0.00390
-0.05291
0.03013
-0.00678
-0.05217
0.02919
-0.01168
-0.07814
-0.01295
-0.01404
-0.07729
-0.01078
-0.09247
-0.02967
-0.09235
-0.02927
0.00887
0.00964
0.08530
0.07838
0.01043
0.08596
0.07792
0.02646
0.08678
0.06245
0.02560
0.08583
0.06330
0.01959
0.05222
0.08590
0.01766
0.05214
0.08852
0.00604
-0.01067
0.07925
0.00579
-0.01103
0.07949
0.00916
-0.03460
0.04628
0.00885
-0.03445
0.04680
-0.00045
-0.05108
0.01373
-0.00061
-0.05086
0.01534
0.00656
0.00673
0.10407
0.10413
0.00950
0.12544
0.08957
0.01001
0.12544
0.09133
0.02433
0.12660
0.12058
0.02485
0.12684
0.12113
-0.02603
-0.06864
0.00720
-0.02695
-0.06827
0.00996
0.02788
0.03720
0.11998
0.02785
0.03652
0.11982
0.01966
0.01449
0.10585
0.01900
0.01464
0.10572
-0.10401
-0.03506
-0.10206
-0.03503
0.00599
-0.01705
0.07153
0.00554
-0.01645
0.07385
-0.01469
-0.03304
0.04991
-0.01622
-0.03187
0.05084
0.00511
0.00515
0.12275
0.11388
0.00493
0.12505
0.11360
0.03060
0.14909
0.09235
0.03173
0.14743
0.09185
0.03286
0.13654
0.15548
0.03424
0.13451
0.15621
-0.01981
-0.05672
0.02367
-0.01996
-0.05511
0.02437
0.01856
0.07004
0.14620
0.01806
0.06964
0.14367
0.01770
0.03734
0.11153
0.01584
0.03893
0.11165
0.00247
-0.00228
0.08642
0.00093
-0.00055
0.08730
-0.08517
-0.00093
-0.08318
0.00297
-0.01108
-0.02099
0.05242
-0.01156
-0.02004
0.05325
0.00358
0.00343
0.13621
0.13463
0.00298
0.14354
0.11761
0.00293
0.14270
0.11709
0.03189
0.16896
0.18938
0.03335
0.17405
0.18583
-0.02576
-0.04721
0.03175
-0.02914
-0.04565
0.03309
0.03431
0.20271
0.12273
0.03285
0.20132
0.12435
0.01935
0.09284
0.16363
0.01780
0.09408
0.16241
0.01435
0.05807
0.12541
0.01231
0.05950
0.12521
-0.00135
0.01281
0.09037
-0.00244
0.01475
0.08903
-0.05212
-0.07358
0.01228
-0.05166
-0.07299
0.01315
-0.01748
-0.00991
0.05768
-0.01848
-0.00876
0.05843
-0.11090
-0.01682
-0.11062
-0.01661
0.00385
0.00447
0.15437
0.14529
0.00425
0.15599
0.14745
0.02894
0.16716
0.14469
0.02929
0.16745
0.14471
0.04211
0.03169
0.16070
0.21244
0.04171
0.03098
0.15907
0.21168
0.25267
0.18566
0.25383
0.18475
0.02052
0.11864
0.16772
0.01862
0.11932
0.16972
0.01161
0.07627
0.12468
0.01071
0.07702
0.12457
-0.03521
-0.03611
0.03377
-0.03621
-0.03621
0.03596
-0.00278
0.02173
0.08567
-0.00288
0.02288
0.08518
-0.05455
-0.07141
0.01189
-0.05536
-0.07022
0.01223
-0.01630
-0.00308
0.04799
-0.01699
-0.00253
0.04828
-0.10462
-0.00847
-0.10409
-0.00785
0.00451
0.00457
0.15366
0.15241
0.00379
0.17170
0.14819
0.00393
0.17061
0.14874
0.04168
0.03293
0.27993
0.19385
0.04137
0.03222
0.28206
0.19356
0.03313
0.18732
0.22786
0.03208
0.18798
0.22757
0.18422
0.18549
0.18544
0.18573
0.01675
0.14243
0.17076
0.01583
0.14126
0.17123
0.00781
0.09138
0.12568
0.00725
0.09118
0.12512
-0.03223
-0.03756
0.02602
-0.03374
-0.03622
0.02666
-0.00511
0.02672
0.07646
-0.00676
0.02738
0.07939
-0.05704
-0.06905
0.00754
-0.05727
-0.06705
0.00692
-0.01712
-0.00128
0.04282
-0.01715
0.00064
0.04074
0.00257
0.00255
0.17655
0.16851
0.00330
0.17867
0.16692
-0.10560
-0.03385
-0.10455
-0.03223
0.04591
0.03790
0.20225
0.28898
0.04549
0.03729
0.20275
0.28518
0.00273
0.21450
0.18863
0.00215
0.21100
0.18961
0.02936
0.19623
0.22555
0.02958
0.19757
0.22443
0.19955
0.28539
0.20284
0.28425
0.01344
0.17222
0.14424
0.01274
0.16694
0.14622
0.00451
0.09174
0.10999
0.00238
0.09521
0.10929
-0.03260
-0.02971
0.01705
-0.03369
-0.03037
0.01666
-0.00551
0.02449
0.06585
-0.00589
0.02654
0.06365
-0.02847
-0.06879
-0.04329
-0.03018
-0.06764
-0.04232
-0.01204
-0.00291
0.02438
-0.01137
-0.00030
0.02285
-0.00102
-0.00037
0.18253
0.17895
-0.00166
0.03267
0.19499
0.24808
-0.00098
0.03117
0.19484
0.24855
0.18797
0.24084
0.19037
0.24069
0.05454
0.20299
0.26919
0.05380
0.20337
0.26823
0.03933
0.20916
0.26721
0.03991
0.21197
0.26513
0.02238
0.00460
0.13909
0.16277
0.02135
0.00247
0.13855
0.16455
0.18676
0.22973
0.18742
0.23196
-0.00063
0.08628
0.09795
-0.00162
0.08666
0.09725
-0.09918
-0.07309
-0.09793
-0.07226
-0.03865
-0.00350
-0.03559
-0.03788
-0.00648
-0.03653
-0.00303
0.02113
0.04645
-0.00436
0.02233
0.04546
-0.00430
-0.00767
-0.01555
-0.00402
-0.00696
-0.01478
-0.01473
-0.06082
-0.07264
-0.01695
-0.05824
-0.07292
-0.00244
-0.00129
0.26692
0.19437
-0.00126
0.19622
0.26517
0.00065
0.25939
0.19245
0.00034
0.19193
0.25999
0.03606
0.26989
0.19127
0.03595
0.19327
0.27005
0.05873
0.26447
0.17546
0.05837
0.17619
0.26458
0.03480
0.28299
0.19972
0.03517
0.20012
0.28377
0.01164
0.22012
0.17281
0.01051
0.17204
0.22127
-0.00240
0.14637
0.12375
-0.00312
0.12454
0.14718
0.00010
0.07556
0.07285
-0.00000
0.07346
0.07471
-0.07834
-0.09045
-0.07617
-0.09045
-0.02677
-0.02102
-0.04860
-0.02184
-0.02720
-0.04860
0.00103
0.00929
0.01984
0.00994
0.00008
0.01984
-0.02720
-0.07617
-0.07292
0.00008
-0.02184
-0.01478
-0.00874
0.00994
0.07471
0.00238
0.07346
0.14718
0.02191
0.12454
0.22127
0.05033
0.17204
0.28377
0.05195
0.20012
0.26458
0.03928
0.17619
0.27005
-0.00302
0.19327
0.25999
-0.00212
0.19193
0.26517
-0.00212
0.19622
0.19437
-0.00302
0.19245
0.26692
0.03928
0.19127
0.25939
0.05195
0.17546
0.26989
0.05033
0.19972
0.26447
0.02191
0.17281
0.28299
0.00238
0.12375
0.22012
-0.00874
0.07285
0.14637
0.00929
0.07556
0.00103
-0.02102
-0.01555
-0.02677
-0.07834
-0.07264
-0.00000
-0.00696
0.04546
0.00010
-0.00767
0.04645
-0.05824
-0.00402
-0.03653
-0.06082
-0.00430
-0.03559
-0.01695
-0.07226
-0.01473
-0.07309
-0.00312
0.02233
0.09725
-0.00240
0.02113
0.09795
0.01051
0.08666
0.16455
0.01164
0.08628
0.16277
0.03517
0.23196
0.13855
0.03480
0.22973
0.13909
0.05837
0.18742
0.26513
0.05873
0.18676
0.26721
0.03595
0.21197
0.26823
0.03606
0.20916
0.26919
0.00034
0.20337
0.24855
0.00065
0.20299
0.24808
-0.00126
0.24069
0.19484
-0.00129
0.24084
0.19499
-0.00244
0.19037
0.17895
0.18797
0.18253
-0.00648
-0.09793
-0.04232
-0.00350
-0.09918
-0.04329
-0.00436
-0.03788
0.02285
-0.00303
-0.03865
0.02438
-0.00162
-0.00030
0.06365
-0.00063
-0.00291
0.06585
-0.01137
-0.06764
0.01666
-0.01204
-0.06879
0.01705
-0.03018
-0.03223
-0.02847
-0.03385
0.00247
0.02654
0.10929
0.00460
0.02449
0.10999
0.02135
0.03991
0.14622
0.22443
0.02238
0.03933
0.14424
0.22555
0.09521
0.16694
0.09174
0.17222
0.05380
0.19757
0.28518
0.05454
0.19623
0.28898
0.03117
0.28425
0.20275
0.03267
0.28539
0.20225
-0.00098
-0.00037
0.18961
0.16692
-0.00166
-0.00102
0.18863
0.16851
0.20284
0.21100
0.19955
0.21450
0.17867
0.17655
-0.00589
-0.03037
0.04074
-0.00551
-0.02971
0.04282
-0.03369
-0.10455
0.00692
-0.03260
-0.10560
0.00754
0.00238
0.00064
0.07939
0.00451
-0.00128
0.07646
-0.01715
-0.06705
0.02666
-0.01712
-0.06905
0.02602
0.01274
0.02738
0.12512
0.01344
0.02672
0.12568
0.02958
0.09118
0.17123
0.02936
0.09138
0.17076
0.00215
0.03729
0.18573
0.19356
0.00273
0.03790
0.18549
0.19385
0.04549
0.14126
0.22757
0.04591
0.14243
0.22786
0.00330
0.18544
0.14874
0.00255
0.18422
0.14819
0.18798
0.28206
0.18732
0.27993
-0.05727
-0.00785
-0.05704
-0.00847
0.00257
0.17061
0.15241
0.17170
0.15366
-0.00676
-0.03622
0.04828
-0.00511
-0.03756
0.04799
-0.03374
-0.10409
0.01223
-0.03223
-0.10462
0.01189
0.00725
-0.00253
0.08518
0.00781
-0.00308
0.08567
-0.01699
-0.07022
0.03596
-0.01630
-0.07141
0.03377
0.01583
0.02288
0.12457
0.01675
0.02173
0.12468
0.03208
0.07702
0.16972
0.03313
0.07627
0.16772
0.03222
0.00393
0.18475
0.14471
0.03293
0.00379
0.18566
0.14469
0.04137
0.11932
0.21168
0.04168
0.11864
0.21244
0.25383
0.15907
0.25267
0.16070
0.00457
0.16745
0.14745
0.00451
0.16716
0.14529
0.15599
0.15437
-0.05536
-0.01661
-0.05455
-0.01682
-0.00288
-0.03621
0.05843
-0.00278
-0.03611
0.05768
-0.03621
-0.11062
0.01315
-0.03521
-0.11090
0.01228
0.01071
-0.00876
0.08903
0.01161
-0.00991
0.09037
-0.01848
-0.07299
0.03309
-0.01748
-0.07358
0.03175
0.01862
0.01475
0.12521
0.02052
0.01281
0.12541
0.03098
0.05950
0.16241
0.03169
0.05807
0.16363
0.04171
0.02929
0.12435
0.18583
0.04211
0.02894
0.12273
0.18938
0.09408
0.20132
0.09284
0.20271
0.00425
0.17405
0.11709
0.00447
0.16896
0.11761
0.00385
0.14270
0.13463
0.14354
0.13621
-0.05166
-0.05212
-0.00244
-0.04565
0.05325
-0.00135
-0.04721
0.05242
-0.02914
0.00297
-0.02576
-0.00093
0.01231
-0.02004
0.08730
0.01435
-0.02099
0.08642
0.01780
-0.00055
0.11165
0.01935
-0.00228
0.11153
0.03285
0.03893
0.14367
0.03431
0.03734
0.14620
0.03335
0.06964
0.15621
0.03189
0.07004
0.15548
-0.01156
-0.08318
0.02437
-0.01108
-0.08517
0.02367
0.00293
0.13451
0.09185
0.00298
0.13654
0.09235
0.00343
0.14743
0.11360
0.00358
0.14909
0.11388
0.12505
0.12275
0.00093
-0.05511
0.05084
0.00247
-0.05672
0.04991
-0.01996
-0.03503
-0.01981
-0.03506
0.01584
-0.03187
0.07385
0.01770
-0.03304
0.07153
0.01806
-0.01645
0.10572
0.01856
-0.01705
0.10585
0.03424
0.01464
0.11982
0.03286
0.01449
0.11998
-0.01622
-0.10206
0.00996
-0.01469
-0.10401
0.00720
0.03173
0.03652
0.12113
0.03060
0.03720
0.12058
0.00493
0.12684
0.09133
0.00515
0.12660
0.08957
0.00511
0.12544
0.10413
0.12544
0.10407
0.00554
-0.06827
0.01534
0.00599
-0.06864
0.01373
0.01900
-0.05086
0.04680
0.01966
-0.05108
0.04628
-0.02695
-0.02603
0.02785
-0.03445
0.07949
0.02788
-0.03460
0.07925
0.02485
-0.01103
0.08852
0.02433
-0.01067
0.08590
-0.00061
-0.02927
-0.00045
-0.02967
0.01001
0.05214
0.06330
0.00950
0.05222
0.06245
0.00673
0.08583
0.07792
0.00656
0.08678
0.07838
0.08596
0.08530
0.00885
-0.09235
-0.01078
0.00916
-0.09247
-0.01295
0.00579
-0.07729
0.02919
0.00604
-0.07814
0.03013
0.01766
-0.05217
0.06026
0.01959
-0.05291
0.06024
0.02560
-0.02892
0.06123
0.02646
-0.03015
0.05960
0.01043
0.05826
0.05202
0.00964
0.05882
0.05182
0.00887
0.06453
0.06122
0.06462
0.06245
-0.01404
-0.06647
-0.01168
-0.06688
-0.00678
-0.11235
-0.04552
-0.00390
-0.11233
-0.04708
-0.00333
-0.09445
0.00125
-0.00063
-0.09522
0.00235
0.01345
0.01731
-0.06841
0.01377
0.01436
-0.06844
0.01392
-0.00606
0.03269
0.01397
-0.00560
0.03178
0.01239
0.03727
0.03428
0.01160
0.03764
0.03350
0.03863
0.04074
-0.02819
-0.02760
-0.01174
-0.01247
0.00923
0.01814
0.01043
-0.09971
0.01184
0.01918
0.00801
-0.09983
-0.05338
-0.05296
0.01803
-0.00811
0.00154
0.01717
-0.00857
0.00086
0.01661
-0.00010
0.00229
0.00103
0.00052
-0.00223
0.02566
-0.02882
-0.00125
0.02595
-0.02908
0.01716
-0.05523
-0.03189
0.01790
-0.05613
-0.03324
-0.04316
-0.04189
0.00924
0.01027
0.01426
0.01016
0.00694
0.01155
0.01496
0.00734
0.01181
0.01464
0.00550
0.01683
0.00556
0.01671
0.01613
0.01691
0.03519
0.03576
0.02275
0.03883
0.02895
0.02396
0.03817
0.02869
0.01849
0.01831
-0.01385
0.02016
0.01723
-0.01353
0.04672
0.04204
0.04744
0.04145
0.01461
0.01709
0.05494
0.04604
0.01709
0.05490
0.04604
0.01766
0.06281
0.04186
0.01828
0.06270
0.04153
0.03159
0.00255
-0.01961
0.05992
0.03041
0.00482
-0.01952
0.05787
0.05244
0.05849
0.05244
0.05903
-0.01804
-0.04885
0.01384
-0.01766
-0.04800
0.01333
-0.06400
-0.00992
-0.06325
-0.01038
0.01150
0.01115
0.06208
0.06272
0.01242
0.07293
0.05607
0.01269
0.07231
0.05650
0.02942
0.07303
0.04345
0.02926
0.07305
0.04402
0.00701
0.04770
0.10078
0.00778
0.04683
0.09963
0.00333
-0.00579
0.08278
0.00403
-0.00570
0.08208
-0.00422
-0.02928
0.04596
-0.00371
-0.02870
0.04436
-0.04616
0.02973
-0.04561
0.02945
0.00724
0.00809
0.07713
0.07052
0.00788
0.07699
0.07082
0.01304
0.08372
0.05809
0.01256
0.08404
0.05762
0.02842
0.08462
0.10647
0.02875
0.08488
0.10581
0.01859
0.01256
0.13075
0.01814
0.01247
0.12985
0.01997
0.01035
0.09772
0.01973
0.01061
0.09720
0.00941
-0.00415
0.06924
0.00920
-0.00345
0.06959
0.00492
0.00483
0.09367
0.09394
0.00751
0.10973
0.08107
0.00634
0.10946
0.08112
0.03119
0.11675
0.06563
0.03169
0.11572
0.06644
-0.01402
-0.01554
0.05673
-0.01195
-0.01497
0.05656
0.03616
0.10554
0.16025
0.03584
0.10546
0.16000
0.03003
0.05153
0.14390
0.02992
0.05130
0.14350
-0.05066
0.01491
-0.05050
0.01544
0.02013
0.01684
0.11654
0.01889
0.01725
0.11653
0.00046
0.00686
0.09038
0.00082
0.00669
0.09082
0.00243
0.00314
0.11020
0.09832
0.00295
0.10968
0.09843
0.00557
0.12586
0.08674
0.00537
0.12581
0.08664
0.03908
0.13415
0.16563
0.03815
0.13422
0.16565
-0.01283
-0.01283
0.06472
-0.01144
-0.01282
0.06467
0.03452
0.08622
0.19381
0.03428
0.08586
0.19441
0.03074
0.06874
0.15812
0.03029
0.06851
0.15817
0.01576
0.03217
0.12404
0.01539
0.03214
0.12382
-0.03915
0.03868
-0.03790
0.03694
0.00392
0.01796
0.09196
0.00299
0.01849
0.09202
0.00188
0.00175
0.11851
0.11842
0.00160
0.13050
0.10830
0.00144
0.13066
0.10789
0.03486
0.14435
0.09417
0.03487
0.14397
0.09415
-0.00968
0.00078
0.05821
-0.00963
0.00101
0.05800
0.04250
0.24080
0.14611
0.04170
0.24008
0.14668
0.03423
0.11613
0.20394
0.03364
0.11607
0.20386
0.02856
0.09202
0.16207
0.02785
0.09242
0.16202
0.01453
0.04361
0.12210
0.01356
0.04408
0.12292
-0.03711
-0.02059
0.03937
-0.03678
-0.02111
0.03786
0.00133
0.02940
0.08202
0.00067
0.02966
0.08238
-0.05799
0.00370
-0.05724
0.00292
0.00134
0.00052
0.13993
0.13242
0.00053
0.13995
0.13183
-0.00123
0.15155
0.12354
-0.00145
0.15184
0.12309
0.04417
0.04930
0.15331
0.26748
0.04392
0.04836
0.15404
0.26670
0.23783
0.16825
0.23705
0.16870
0.03506
0.13676
0.21031
0.03433
0.13693
0.20950
0.02560
0.10759
0.15891
0.02466
0.10807
0.15908
-0.01795
0.01154
0.05332
-0.01827
0.01209
0.05299
0.01081
0.05322
0.10991
0.00994
0.05336
0.11045
-0.03968
-0.01755
0.03021
-0.03870
-0.01798
0.02959
-0.00294
0.03675
0.07105
-0.00391
0.03757
0.07099
-0.05201
0.00311
-0.05224
0.00315
0.00004
-0.00013
0.14732
0.14696
-0.00104
0.16014
0.13830
-0.00137
0.16096
0.13789
0.06052
0.03162
0.34779
0.18120
0.05975
0.03165
0.34732
0.18164
0.04827
0.18885
0.27109
0.04777
0.18852
0.27149
0.17171
0.17489
0.17161
0.17456
0.03306
0.16139
0.20504
0.03259
0.16180
0.20476
0.02121
0.12434
0.14709
0.02030
0.12532
0.14731
-0.01876
0.01457
0.04216
-0.01808
0.01485
0.04163
0.00645
0.05256
0.09538
0.00580
0.05335
0.09407
-0.04433
-0.01572
0.02301
-0.04377
-0.01609
0.02332
-0.00269
0.03663
0.05305
-0.00317
0.03683
0.05355
-0.00150
-0.00142
0.17099
0.16132
-0.00169
0.17130
0.16115
-0.04727
-0.00249
-0.04749
-0.00278
0.06295
0.04600
0.18590
0.31813
0.06211
0.04596
0.18437
0.31906
-0.00079
0.20209
0.18219
-0.00084
0.20168
0.18264
0.04496
0.19637
0.26208
0.04393
0.19656
0.26174
0.19517
0.31054
0.19484
0.30988
0.02604
0.19507
0.16497
0.02534
0.19608
0.16521
0.01290
0.12524
0.13331
0.01254
0.12511
0.13331
-0.01708
0.01303
0.02954
-0.01645
0.01424
0.02925
0.00330
0.05162
0.07523
0.00317
0.05146
0.07561
-0.03121
-0.01858
-0.00102
-0.03036
-0.01843
-0.00202
0.00076
0.03246
0.03695
-0.00014
0.03269
0.03726
-0.00407
-0.00409
0.18041
0.18042
-0.00523
0.04567
0.19087
0.24508
-0.00540
0.04679
0.19193
0.24297
0.18867
0.24515
0.18930
0.24394
0.07015
0.20073
0.26582
0.06844
0.20316
0.26545
0.05789
0.19632
0.28318
0.05699
0.19596
0.28385
0.03496
0.01526
0.15963
0.18215
0.03471
0.01544
0.15992
0.18151
0.19877
0.25279
0.19854
0.25262
0.00658
0.11666
0.11647
0.00584
0.11748
0.11604
-0.04584
-0.01189
-0.04571
-0.01222
0.00590
0.00450
-0.00541
0.00632
0.00508
-0.00507
0.00474
0.04224
0.06236
0.00507
0.04295
0.06163
0.01180
0.02105
0.01648
0.01031
0.02201
0.01575
-0.01597
-0.02105
-0.03633
-0.01528
-0.02082
-0.03679
-0.00554
-0.00491
0.27186
0.19433
-0.00510
0.19559
0.27043
-0.00314
0.27242
0.19156
-0.00337
0.19315
0.27114
0.05243
0.28300
0.18922
0.05191
0.19063
0.28195
0.07544
0.25934
0.21392
0.07584
0.21394
0.25763
0.05255
0.28313
0.20916
0.05183
0.20810
0.28312
0.02388
0.23924
0.18674
0.02376
0.18764
0.23873
0.00416
0.16934
0.14178
0.00380
0.14165
0.16946
0.00567
0.10280
0.09759
0.00521
0.09776
0.10233
-0.03189
-0.01409
-0.03244
-0.01409
0.00106
0.00445
-0.01782
0.00579
-0.00045
-0.01782
0.01543
0.02801
0.05333
0.02857
0.01493
0.05333
-0.00045
-0.03244
-0.03679
0.01493
0.00579
0.01575
-0.00130
0.02857
0.10233
0.01232
0.09776
0.16946
0.04251
0.14165
0.23873
0.07789
0.18764
0.28312
0.05277
0.20810
0.25763
-0.00013
0.21394
0.28195
-0.00314
0.19063
0.27114
-0.00347
0.19315
0.27043
-0.00347
0.19559
0.19433
-0.00314
0.19156
0.27186
-0.00013
0.18922
0.27242
0.05277
0.21392
0.28300
0.07789
0.20916
0.25934
0.04251
0.18674
0.28313
0.01232
0.14178
0.23924
-0.00130
0.09759
0.16934
0.02801
0.10280
0.01543
0.00445
0.01648
0.00106
-0.03189
-0.03633
0.00521
0.02201
0.06163
0.00567
0.02105
0.06236
-0.02082
0.01031
-0.00507
-0.02105
0.01180
-0.00541
-0.01528
-0.01222
-0.01597
-0.01189
0.00380
0.04295
0.11604
0.00416
0.04224
0.11647
0.02376
0.11748
0.18151
0.02388
0.11666
0.18215
0.05183
0.25262
0.15992
0.05255
0.25279
0.15963
0.07584
0.19854
0.28385
0.07544
0.19877
0.28318
0.05191
0.19596
0.26545
0.05243
0.19632
0.26582
-0.00337
0.20316
0.24297
-0.00314
0.20073
0.24508
-0.00510
0.24394
0.19193
-0.00491
0.24515
0.19087
-0.00554
0.18930
0.18042
0.18867
0.18041
0.00508
-0.04571
-0.00202
0.00450
-0.04584
-0.00102
0.00507
0.00632
0.03726
0.00474
0.00590
0.03695
0.00584
0.03269
0.07561
0.00658
0.03246
0.07523
-0.00014
-0.01843
0.02925
0.00076
-0.01858
0.02954
-0.03036
-0.00278
-0.03121
-0.00249
0.01544
0.05146
0.13331
0.01526
0.05162
0.13331
0.03471
0.05699
0.16521
0.26174
0.03496
0.05789
0.16497
0.26208
0.12511
0.19608
0.12524
0.19507
0.06844
0.19656
0.31906
0.07015
0.19637
0.31813
0.04679
0.30988
0.18437
0.04567
0.31054
0.18590
-0.00540
-0.00409
0.18264
0.16115
-0.00523
-0.00407
0.18219
0.16132
0.19484
0.20168
0.19517
0.20209
0.17130
0.17099
0.00317
0.01424
0.05355
0.00330
0.01303
0.05305
-0.01645
-0.04749
0.02332
-0.01708
-0.04727
0.02301
0.01254
0.03683
0.09407
0.01290
0.03663
0.09538
-0.00317
-0.01609
0.04163
-0.00269
-0.01572
0.04216
0.02534
0.05335
0.14731
0.02604
0.05256
0.14709
0.04393
0.12532
0.20476
0.04496
0.12434
0.20504
-0.00084
0.04596
0.17456
0.18164
-0.00079
0.04600
0.17489
0.18120
0.06211
0.16180
0.27149
0.06295
0.16139
0.27109
-0.00169
0.17161
0.13789
-0.00142
0.17171
0.13830
0.18852
0.34732
0.18885
0.34779
-0.04377
0.00315
-0.04433
0.00311
-0.00150
0.16096
0.14696
0.16014
0.14732
0.00580
0.01485
0.07099
0.00645
0.01457
0.07105
-0.01808
-0.05224
0.02959
-0.01876
-0.05201
0.03021
0.02030
0.03757
0.11045
0.02121
0.03675
0.10991
-0.00391
-0.01798
0.05299
-0.00294
-0.01755
0.05332
0.03259
0.05336
0.15908
0.03306
0.05322
0.15891
0.04777
0.10807
0.20950
0.04827
0.10759
0.21031
0.03165
-0.00137
0.16870
0.12309
0.03162
-0.00104
0.16825
0.12354
0.05975
0.13693
0.26670
0.06052
0.13676
0.26748
0.23705
0.15404
0.23783
0.15331
-0.00013
0.15184
0.13183
0.00004
0.15155
0.13242
0.13995
0.13993
-0.03870
0.00292
-0.03968
0.00370
0.00994
0.01209
0.08238
0.01081
0.01154
0.08202
-0.01827
-0.05724
0.03786
-0.01795
-0.05799
0.03937
0.02466
0.02966
0.12292
0.02560
0.02940
0.12210
0.00067
-0.02111
0.05800
0.00133
-0.02059
0.05821
0.03433
0.04408
0.16202
0.03506
0.04361
0.16207
0.04836
0.09242
0.20386
0.04930
0.09202
0.20394
0.04392
-0.00145
0.14668
0.09415
0.04417
-0.00123
0.14611
0.09417
0.11607
0.24008
0.11613
0.24080
0.00053
0.14397
0.10789
0.00052
0.14435
0.10830
0.00134
0.13066
0.11842
0.13050
0.11851
-0.03678
-0.03711
0.01356
0.00101
0.09202
0.01453
0.00078
0.09196
-0.00963
0.03694
-0.00968
0.03868
0.02785
0.01849
0.12382
0.02856
0.01796
0.12404
0.03364
0.03214
0.15817
0.03423
0.03217
0.15812
0.04170
0.06851
0.19441
0.04250
0.06874
0.19381
0.03487
0.08586
0.16565
0.03486
0.08622
0.16563
0.00299
-0.03790
0.06467
0.00392
-0.03915
0.06472
0.00144
0.13422
0.08664
0.00160
0.13415
0.08674
0.00175
0.12581
0.09843
0.00188
0.12586
0.09832
0.10968
0.11020
0.01539
-0.01282
0.09082
0.01576
-0.01283
0.09038
-0.01144
0.01544
-0.01283
0.01491
0.03029
0.00669
0.11653
0.03074
0.00686
0.11654
0.03428
0.01725
0.14350
0.03452
0.01684
0.14390
0.03815
0.05130
0.16000