# vtk DataFile Version 3.0
Point representing Sub_cellular elem model
ASCII

DATASET UNSTRUCTURED_GRID
POINTS 3657 float
-51.76432 -3.00511 53.80002 
-51.73342 3.27869 53.84438 
-51.36590 -9.25105 53.40704 
-51.35202 9.58052 53.50562 
-48.50436 0.07397 57.76353 
-48.16227 -6.06468 57.43257 
-48.19233 6.24007 57.41711 
-48.80372 -16.67996 53.63253 
-48.65361 16.86513 53.74421 
-47.96221 -12.06394 56.92282 
-47.80174 12.30630 57.08390 
-44.62099 -3.00024 60.61483 
-44.65390 3.11378 60.60852 
-44.38275 -9.11641 60.33029 
-44.36098 9.15698 60.37203 
-45.13364 -19.78808 57.13632 
-45.02523 19.96307 57.18471 
-44.21660 -14.89376 59.38409 
-44.10895 14.97540 59.49527 
-45.96792 -24.00555 53.30922 
-45.88478 24.47951 53.68020 
-46.16862 -28.71273 49.71414 
-45.98580 29.17778 49.97819 
-41.10404 -0.00331 63.29312 
-41.06031 -6.09908 63.31829 
-41.04113 6.11176 63.34896 
-40.59467 -11.92893 62.68432 
-40.54484 11.97599 62.78662 
-40.57383 -17.81816 61.87615 
-40.50808 17.82963 61.98557 
-41.39256 -22.68657 59.24604 
-41.29898 22.82799 59.41700 
-42.42441 -27.49120 56.56520 
-42.25163 27.78776 56.76665 
-41.94626 -32.99866 53.52699 
-41.60895 33.35440 53.59779 
-37.45523 -3.00655 65.58871 
-37.41338 3.05297 65.61974 
-37.14526 -8.93051 65.35904 
-37.10560 8.90048 65.36640 
-36.75005 -14.56947 64.82015 
-36.72084 14.59244 64.87640 
-36.74054 -20.33768 63.62372 
-36.69726 20.43839 63.70399 
-37.65709 -25.29172 61.47308 
-37.50375 25.45252 61.62910 
-37.50971 -30.84079 59.08311 
-37.33823 30.99605 59.28559 
-34.06206 0.01417 67.86959 
-33.79291 -5.82477 67.57991 
-33.70029 5.82711 67.63217 
-33.30122 -11.67417 67.51607 
-33.29247 11.69136 67.54557 
-37.03866 -36.30054 56.32727 
-36.83350 36.51753 56.70043 
-33.00722 -17.33251 66.60539 
-33.02334 17.32162 66.65373 
-33.09228 -22.93277 65.43805 
-33.01089 22.94920 65.55879 
-36.65386 -40.82422 51.74475 
-36.47432 41.28320 52.20453 
-32.95451 -28.36440 63.40945 
-32.76559 28.43354 63.60682 
-32.66447 -34.00472 61.27672 
-32.46677 34.05774 61.50521 
-29.68413 -3.10863 69.85214 
-29.63477 3.04902 69.88236 
-29.21324 -8.94763 69.62489 
-29.22106 8.97841 69.68385 
-28.61839 -14.59903 69.25048 
-28.58682 14.57157 69.30355 
-32.03507 -39.30753 57.86485 
-31.86949 39.43316 58.08374 
-28.54128 -20.32225 68.25185 
-28.51190 20.23840 68.33394 
-29.21355 -25.29737 66.51014 
-29.09560 25.25556 66.66087 
-28.87196 -30.83007 64.55168 
-28.72502 30.86529 64.70016 
-31.67773 -44.29388 54.13878 
-31.19619 44.60070 54.52748 
-28.49688 -36.29939 62.03094 
-28.28069 36.39497 62.16222 
-25.26002 -0.01441 71.77715 
-25.28814 -6.21997 71.81710 
-25.25235 6.19583 71.84325 
-24.47804 -12.13896 71.32932 
-24.38548 12.06815 71.34856 
-27.80341 -41.67006 58.86622 
-27.60927 41.74401 59.05784 
-24.25855 -17.76612 70.76764 
-24.19560 17.67632 70.84672 
-24.68696 -22.69808 69.24723 
-24.61350 22.66975 69.34080 
-25.27680 -27.73740 67.65292 
-25.18765 27.76403 67.75109 
-24.80510 -33.16485 65.34699 
-24.70762 33.21480 65.49724 
-27.01493 -46.78750 54.82005 
-26.69825 46.93296 54.89945 
-24.28782 -38.72389 62.90131 
-24.10546 38.80938 63.02856 
-26.44175 -50.57456 49.17294 
-26.04123 50.96091 49.38839 
-20.90080 -3.13616 73.38924 
-20.82329 3.11291 73.36882 
-20.54685 -9.27974 73.06373 
-20.52921 9.30310 73.07790 
-20.41205 -20.01119 71.48829 
-20.38653 19.99612 71.56957 
-20.02215 -14.96864 72.52502 
-19.92087 14.98872 72.58295 
-20.85432 -25.05518 70.02914 
-20.74254 25.05819 70.08161 
-21.22261 -29.99028 68.12802 
-21.13975 30.05151 68.19596 
-23.32586 -44.08698 59.32854 
-23.11926 44.21795 59.41793 
-20.69830 -35.43234 65.83424 
-20.52032 35.51225 65.92502 
-22.54913 -49.36172 54.93966 
-22.25885 49.50221 55.09619 
-19.81655 -40.97074 62.89497 
-19.61323 41.00777 63.03317 
-21.45833 -53.45083 49.44737 
-21.00767 53.68737 49.67357 
-16.56037 -0.01772 74.93181 
-16.34123 -6.20863 74.56809 
-16.36035 6.17533 74.56674 
-16.31460 -17.36434 73.26115 
-16.20573 17.34742 73.31801 
-16.62719 -22.43922 72.21591 
-16.56695 22.42576 72.26926 
-16.13532 -12.32079 74.20805 
-16.05421 12.26723 74.24694 
-16.86130 -27.35952 70.47018 
-16.82356 27.35792 70.52895 
-17.21675 -32.29020 68.58298 
-17.12804 32.34558 68.64104 
-18.78394 -46.35976 59.26817 
-18.63582 46.39780 59.38498 
-16.34711 -37.70730 65.92714 
-16.12222 37.73997 66.02829 
-17.71845 -51.33761 54.78672 
-17.43361 51.46293 54.89784 
-15.28786 -43.26221 63.08534 
-15.10488 43.32181 63.16081 
-12.25578 -3.17383 75.65944 
-12.20912 3.14275 75.71183 
-16.42162 -55.67036 49.44274 
-15.95967 55.91735 49.70649 
-12.36856 -19.69921 73.76932 
-12.32617 19.69913 73.79734 
-12.06738 -9.41047 75.30889 
-12.05383 9.31963 75.31860 
-12.55358 -24.68389 72.37761 
-12.46680 24.63457 72.43356 
-12.08635 -14.65105 74.71374 
-12.00492 14.58529 74.75132 
-12.69472 -29.64753 70.59132 
-12.64321 29.59104 70.66690 
-13.13714 -34.35410 68.38560 
-12.99226 34.32624 68.47867 
-14.09403 -48.40777 59.17924 
-13.97005 48.46782 59.24724 
-11.99050 -39.78380 65.73489 
-11.89641 39.81467 65.73491 
-13.04909 -53.46351 54.79599 
-12.68892 53.57811 54.86861 
-10.87413 -45.14180 62.44520 
-10.60271 45.21830 62.56561 
-8.12882 -0.00383 76.42199 
-8.06483 -11.68670 75.77007 
-8.02414 11.67415 75.75708 
-8.07984 -6.35352 76.40560 
-8.00546 6.33371 76.42035 
-8.20858 -16.83038 75.16805 
-8.14960 16.82317 75.18973 
-8.37814 -21.80800 73.89552 
-8.25937 21.81764 73.92462 
-8.58522 -31.56892 70.41853 
-8.47110 31.63417 70.47106 
-8.38629 -26.86953 72.49355 
-8.30378 26.86284 72.52555 
-8.85380 -36.39924 68.30098 
-8.76764 36.49434 68.29984 
-10.44686 -57.04682 50.75902 
-9.93450 57.08098 50.73255 
-9.58520 -50.33606 58.64433 
-9.42608 50.34203 58.73815 
-7.67454 -41.70919 65.22435 
-7.50386 41.77168 65.24777 
-6.33970 -47.05524 62.18523 
-6.03071 47.14874 62.18745 
-6.76864 -53.99880 55.55831 
-6.47475 54.00678 55.63543 
-3.98182 -3.17412 76.85753 
-3.92124 3.20707 76.86592 
-4.04516 -8.60077 76.48680 
-3.99003 8.58897 76.49223 
-4.05284 -13.92247 75.89713 
-4.00249 13.88976 75.93646 
-4.17151 -18.91697 75.06129 
-4.11560 18.94476 75.06423 
-4.18401 -23.82314 73.77854 
-4.05909 23.86897 73.77833 
-4.20996 -28.64252 72.10054 
-4.15826 28.59222 72.10159 
-4.35585 -33.37530 70.01791 
-4.28538 33.40228 70.02738 
-4.51855 -38.17268 67.61607 
-4.40290 38.22948 67.61133 
-3.73225 -57.48668 51.90713 
-3.30704 57.51554 51.88880 
-3.36578 -50.65113 59.35635 
-3.11787 50.69432 59.27794 
-3.10037 -43.44684 64.64852 
-2.88227 43.48007 64.65288 
-0.14419 -54.31652 56.35792 
-0.12618 -47.17738 62.16477 
-0.07721 -39.87261 67.02813 
-0.02832 -35.06481 69.38332 
-0.00019 -30.33164 71.68405 
-0.06996 -25.45554 73.37015 
-0.02398 -20.79580 74.88280 
-0.01161 -15.85128 75.76794 
-0.01032 -10.77149 76.56813 
-0.05260 -5.35176 76.89590 
0.00000 0.00000 77.20635 
0.05260 5.35176 76.89590 
0.01032 10.77149 76.56813 
0.01161 15.85128 75.76794 
0.02398 20.79580 74.88280 
0.06996 25.45554 73.37015 
0.00019 30.33164 71.68405 
0.02832 35.06481 69.38332 
0.07721 39.87261 67.02813 
0.12618 47.17738 62.16477 
0.14419 54.31652 56.35792 
2.88227 -43.48007 64.65288 
3.10037 43.44684 64.64852 
3.11787 -50.69432 59.27794 
3.36578 50.65113 59.35635 
3.30704 -57.51554 51.88880 
3.73225 57.48668 51.90713 
4.40290 -38.22948 67.61133 
4.51855 38.17268 67.61607 
4.28538 -33.40228 70.02738 
4.35585 33.37530 70.01791 
4.15826 -28.59222 72.10159 
4.20996 28.64252 72.10054 
4.05909 -23.86897 73.77833 
4.18401 23.82314 73.77854 
4.11560 -18.94476 75.06423 
4.17151 18.91697 75.06129 
4.00249 -13.88976 75.93646 
4.05284 13.92247 75.89713 
3.99003 -8.58897 76.49223 
4.04516 8.60077 76.48680 
3.92124 -3.20707 76.86592 
3.98182 3.17412 76.85753 
6.47475 -54.00678 55.63543 
6.76864 53.99880 55.55831 
6.03071 -47.14874 62.18745 
6.33970 47.05524 62.18523 
7.50386 -41.77168 65.24777 
7.67454 41.70919 65.22435 
9.42608 -50.34203 58.73815 
9.58520 50.33606 58.64433 
9.93450 -57.08098 50.73255 
10.44686 57.04682 50.75902 
8.76764 -36.49434 68.29984 
8.85380 36.39924 68.30098 
8.30378 -26.86284 72.52555 
8.38629 26.86953 72.49355 
8.47110 -31.63417 70.47106 
8.58522 31.56892 70.41853 
8.25937 -21.81764 73.92462 
8.37814 21.80800 73.89552 
8.14960 -16.82317 75.18973 
8.20858 16.83038 75.16805 
8.00546 -6.33371 76.42035 
8.07984 6.35352 76.40560 
8.02414 -11.67415 75.75708 
8.06483 11.68670 75.77007 
8.12882 0.00383 76.42199 
10.60271 -45.21830 62.56561 
10.87413 45.14180 62.44520 
12.68892 -53.57811 54.86861 
13.04909 53.46351 54.79599 
11.89641 -39.81467 65.73491 
11.99050 39.78380 65.73489 
13.97005 -48.46782 59.24724 
14.09403 48.40777 59.17924 
12.99226 -34.32624 68.47867 
13.13714 34.35410 68.38560 
12.64321 -29.59104 70.66690 
12.69472 29.64753 70.59132 
12.00492 -14.58529 74.75132 
12.08635 14.65105 74.71374 
12.46680 -24.63457 72.43356 
12.55358 24.68389 72.37761 
12.05383 -9.31963 75.31860 
12.06738 9.41047 75.30889 
12.32617 -19.69913 73.79734 
12.36856 19.69921 73.76932 
15.95967 -55.91735 49.70649 
16.42162 55.67036 49.44274 
12.20912 -3.14275 75.71183 
12.25578 3.17383 75.65944 
15.10488 -43.32181 63.16081 
15.28786 43.26221 63.08534 
17.43361 -51.46293 54.89784 
17.71845 51.33761 54.78672 
16.12222 -37.73997 66.02829 
16.34711 37.70730 65.92714 
18.63582 -46.39780 59.38498 
18.78394 46.35976 59.26817 
17.12804 -32.34558 68.64104 
17.21675 32.29020 68.58298 
16.82356 -27.35792 70.52895 
16.86130 27.35952 70.47018 
16.05421 -12.26723 74.24694 
16.13532 12.32079 74.20805 
16.56695 -22.42576 72.26926 
16.62719 22.43922 72.21591 
16.20573 -17.34742 73.31801 
16.31460 17.36434 73.26115 
16.36035 -6.17533 74.56674 
16.34123 6.20863 74.56809 
16.56037 0.01772 74.93181 
21.00767 -53.68737 49.67357 
21.45833 53.45083 49.44737 
19.61323 -41.00777 63.03317 
19.81655 40.97074 62.89497 
22.25885 -49.50221 55.09619 
22.54913 49.36172 54.93966 
20.52032 -35.51225 65.92502 
20.69830 35.43234 65.83424 
23.11926 -44.21795 59.41793 
23.32586 44.08698 59.32854 
21.13975 -30.05151 68.19596 
21.22261 29.99028 68.12802 
20.74254 -25.05819 70.08161 
[...]
CELL_DATA 40900
SCALARS Strain double 1
LOOKUP_TABLE default
0.01022
0.00685
-0.07274
-0.05873
0.00898
-0.07129
-0.06469
-0.08818
-0.08400
-0.08596
-0.07984
0.00735
0.00839
0.01660
0.01514
0.00532
0.01516
0.00705
0.00898
0.01658
0.00728
-0.04343
-0.13111
-0.15285
-0.04570
-0.13387
-0.15281
0.00397
-0.04035
0.00158
-0.04862
0.00009
0.00369
0.09330
0.09035
-0.00010
0.09655
0.09264
-0.00574
0.10338
0.07465
-0.00437
0.10290
0.08004
-0.04160
-0.08950
-0.12197
-0.07466
-0.03698
-0.07852
-0.11992
-0.07623
0.01667
-0.02450
0.01470
-0.02820
-0.08448
-0.14797
-0.10584
-0.08374
-0.14862
-0.11372
-0.18309
-0.13592
-0.18308
-0.14012
-0.00384
-0.00239
0.15265
0.15739
-0.00335
0.15490
0.13589
-0.00229
0.15488
0.13460
0.00372
0.16737
0.14112
0.00066
0.15918
0.13954
-0.04220
-0.04978
0.06555
-0.03645
-0.05222
0.06867
-0.05699
-0.07507
-0.02324
-0.04963
-0.07732
-0.01862
-0.05203
-0.10861
-0.05908
-0.04705
-0.10751
-0.06302
-0.15140
-0.10755
-0.14958
-0.11371
-0.00903
-0.00288
0.21844
0.19748
-0.00698
0.21317
0.20133
0.00814
0.20973
0.20184
0.01020
0.21534
0.20433
0.01645
0.14461
0.19094
0.01974
0.14182
0.18748
-0.02916
-0.01819
0.10003
-0.02718
-0.01878
0.10017
-0.02445
-0.03971
0.04408
-0.02485
-0.04125
0.04395
-0.04496
-0.07470
-0.02062
-0.04295
-0.07261
-0.02167
-0.00950
-0.01093
0.25046
0.25611
-0.00565
0.31650
0.24669
-0.00527
0.31058
0.24487
0.01737
0.29100
0.39185
0.01518
0.29412
0.39525
-0.09456
-0.12482
-0.06283
-0.08655
-0.12429
-0.06602
0.01370
0.08454
0.27412
0.01592
0.08733
0.27629
-0.00431
0.05984
0.19476
-0.00118
0.05742
0.19669
-0.16098
-0.09537
-0.16315
-0.09159
-0.01506
-0.00755
0.09838
-0.01685
-0.00847
0.09693
-0.04028
-0.03903
0.02305
-0.03820
-0.04122
0.02957
-0.01017
-0.01159
0.32537
0.31852
-0.00674
0.32017
0.31714
0.03440
0.39011
0.27348
0.03270
0.38354
0.27353
0.05109
0.34855
0.47475
0.04802
0.34767
0.47858
-0.07812
-0.09437
-0.04514
-0.06785
-0.09250
-0.04452
0.00529
0.17154
0.36025
0.00583
0.17369
0.36420
0.00507
0.11779
0.20467
0.00879
0.11466
0.20471
-0.01845
0.02150
0.10802
-0.01501
0.01863
0.10374
-0.13988
-0.06267
-0.14641
-0.07633
-0.03204
-0.02088
0.02127
-0.03450
-0.02487
0.01858
-0.00722
-0.00703
0.35347
0.35550
-0.00595
0.35965
0.31850
-0.00806
0.35496
0.31576
0.02415
0.40014
0.68669
0.02177
0.39990
0.68305
-0.07219
-0.08321
-0.02409
-0.06703
-0.08429
-0.01883
0.04149
0.66230
0.31293
0.04395
0.64948
0.31965
0.01129
0.24971
0.38300
0.01337
0.24553
0.39042
0.00799
0.16666
0.25052
0.00690
0.16926
0.25154
-0.01092
0.05544
0.10506
-0.00859
0.05412
0.11505
-0.12929
-0.14019
-0.05075
-0.12411
-0.14273
-0.05265
-0.02917
0.00055
0.03191
-0.02683
0.00106
0.03340
-0.18255
-0.03036
-0.18506
-0.03512
-0.00540
-0.00549
0.43603
0.40191
-0.00318
0.43191
0.39805
0.05806
0.42555
0.37695
0.05951
0.41738
0.38820
0.06944
0.04408
0.43976
0.65059
0.06456
0.04661
0.44659
0.65907
1.03602
0.47970
1.04733
0.46828
0.02231
0.33601
0.41796
0.02410
0.33065
0.40825
0.00699
0.20954
0.20806
0.00814
0.20658
0.20914
-0.05457
-0.07557
-0.03190
-0.05496
-0.07116
-0.03742
-0.00147
0.06826
0.08564
-0.00417
0.06371
0.08864
-0.11627
-0.13071
-0.04712
-0.11227
-0.13204
-0.04664
-0.01620
0.00117
-0.00924
-0.01711
0.00205
-0.00835
-0.18345
-0.02980
-0.18844
-0.02946
-0.00214
-0.00211
0.40389
0.41572
-0.00606
0.45364
0.39089
-0.00724
0.46886
0.39872
0.06907
0.05328
1.16413
0.55635
0.06899
0.05483
1.13854
0.54362
0.05517
0.53634
0.75333
0.05483
0.53263
0.76379
0.47012
0.47503
0.45440
0.47656
0.01961
0.40499
0.40227
0.02191
0.40788
0.40623
0.01028
0.24806
0.20685
0.00969
0.24545
0.21240
-0.05139
-0.07493
-0.05113
-0.04650
-0.07454
-0.05064
0.00213
0.07093
0.06086
0.00256
0.06878
0.05562
-0.10870
-0.13995
-0.06937
-0.10535
-0.14241
-0.06476
-0.00733
0.00729
-0.02887
-0.00807
0.00611
-0.02448
-0.00010
-0.00088
0.46943
0.46583
-0.00394
0.45845
0.46527
-0.19199
-0.08694
-0.19778
-0.08607
0.07797
0.04908
0.60252
1.18944
0.07335
0.05340
0.60303
1.21237
-0.00363
0.61470
0.51117
-0.00268
0.60658
0.52808
0.04878
0.57555
0.72772
0.04749
0.58485
0.72167
0.52577
0.95317
0.51801
0.93425
0.02420
0.39493
0.42236
0.02367
0.39455
0.42758
0.00709
0.24271
0.16198
0.01074
0.24061
0.15858
-0.03745
-0.07469
-0.08117
-0.03159
-0.07014
-0.08135
0.00512
0.05821
0.01289
0.00608
0.05636
0.01748
-0.04805
-0.14322
-0.14214
-0.04218
-0.14253
-0.14597
0.01061
-0.01326
-0.07881
0.00682
-0.01622
-0.07471
0.00031
0.00009
0.49281
0.50091
-0.00004
0.07668
0.50625
0.71116
0.00106
0.07465
0.51041
0.72567
0.49371
0.71023
0.49540
0.70345
0.11972
0.56634
0.95942
0.12002
0.56442
0.95514
0.06770
0.63606
1.16195
0.06670
0.62351
1.15458
0.04420
0.01241
0.38598
0.35508
0.04567
0.01476
0.37361
0.35378
0.55645
0.77457
0.56643
0.77930
0.00545
0.19806
0.13139
0.00373
0.19813
0.13397
-0.18640
-0.15451
-0.18626
-0.15818
-0.08020
0.00412
-0.15264
-0.08213
0.00732
-0.14752
0.01065
0.04374
-0.01549
0.01325
0.04158
-0.01306
-0.01633
-0.02033
-0.10861
-0.01720
-0.01912
-0.11120
-0.01438
-0.11717
-0.19033
-0.00728
-0.12225
-0.19092
0.00012
0.00596
0.79592
0.48420
0.00315
0.47039
0.81457
-0.00118
0.82548
0.48264
-0.00260
0.49262
0.81278
0.07192
0.85937
0.50100
0.07770
0.49842
0.85300
0.10413
0.97752
0.45517
0.10559
0.45063
0.98349
0.06782
1.25600
0.64412
0.06306
0.62265
1.28554
0.02375
0.68493
0.49177
0.02665
0.50825
0.67151
0.00964
0.31131
0.30840
0.01106
0.30064
0.31130
0.00375
0.08464
0.13640
0.00347
0.13375
0.08653
-0.14359
-0.18046
-0.14308
-0.18046
-0.05518
-0.06323
-0.16507
-0.05882
-0.06025
-0.16507
-0.01477
0.00863
-0.03558
0.00794
-0.01589
-0.03558
-0.06025
-0.14308
-0.19092
-0.01589
-0.05882
-0.11120
0.00054
0.00794
0.08653
0.01903
0.13375
0.31130
0.04699
0.30064
0.67151
0.09969
0.50825
1.28554
0.12875
0.62265
0.98349
0.10992
0.45063
0.85300
0.00460
0.49842
0.81278
0.00016
0.49262
0.81457
0.00016
0.47039
0.48420
0.00460
0.48264
0.79592
0.10992
0.50100
0.82548
0.12875
0.45517
0.85937
0.09969
0.64412
0.97752
0.04699
0.49177
1.25600
0.01903
0.30840
0.68493
0.00054
0.13640
0.31131
0.00863
0.08464
-0.01477
-0.06323
-0.10861
-0.05518
-0.14359
-0.19033
0.00347
-0.01912
-0.01306
0.00375
-0.02033
-0.01549
-0.12225
-0.01720
-0.14752
-0.11717
-0.01633
-0.15264
-0.00728
-0.15818
-0.01438
-0.15451
0.01106
0.04158
0.13397
0.00964
0.04374
0.13139
0.02665
0.19813
0.35378
0.02375
0.19806
0.35508
0.06306
0.77930
0.37361
0.06782
0.77457
0.38598
0.10559
0.56643
1.15458
0.10413
0.55645
1.16195
0.07770
0.62351
0.95514
0.07192
0.63606
0.95942
-0.00260
0.56442
0.72567
-0.00118
0.56634
0.71116
0.00315
0.70345
0.51041
0.00596
0.71023
0.50625
0.00012
0.49540
0.50091
0.49371
0.49281
0.00732
-0.18626
-0.14597
0.00412
-0.18640
-0.14214
0.01325
-0.08213
-0.07471
0.01065
-0.08020
-0.07881
0.00373
-0.01622
0.01748
0.00545
-0.01326
0.01289
0.00682
-0.14253
-0.08135
0.01061
-0.14322
-0.08117
-0.04218
-0.08607
-0.04805
-0.08694
0.01476
0.05636
0.15858
0.01241
0.05821
0.16198
0.04567
0.06670
0.42758
0.72167
0.04420
0.06770
0.42236
0.72772
0.24061
0.39455
0.24271
0.39493
0.12002
0.58485
1.21237
0.11972
0.57555
1.18944
0.07465
0.93425
0.60303
0.07668
0.95317
0.60252
0.00106
0.00009
0.52808
0.46527
-0.00004
0.00031
0.51117
0.46583
0.51801
0.60658
0.52577
0.61470
0.45845
0.46943
0.00608
-0.07014
-0.02448
0.00512
-0.07469
-0.02887
-0.03159
-0.19778
-0.06476
-0.03745
-0.19199
-0.06937
0.01074
0.00611
0.05562
0.00709
0.00729
0.06086
-0.00807
-0.14241
-0.05064
-0.00733
-0.13995
-0.05113
0.02367
0.06878
0.21240
0.02420
0.07093
0.20685
0.04749
0.24545
0.40623
0.04878
0.24806
0.40227
-0.00268
0.05340
0.47656
0.54362
-0.00363
0.04908
0.47503
0.55635
0.07335
0.40788
0.76379
0.07797
0.40499
0.75333
-0.00394
0.45440
0.39872
-0.00088
0.47012
0.39089
0.53263
1.13854
0.53634
1.16413
-0.10535
-0.02946
-0.10870
-0.02980
-0.00010
0.46886
0.41572
0.45364
0.40389
0.00256
-0.07454
-0.00835
0.00213
-0.07493
-0.00924
-0.04650
-0.18844
-0.04664
-0.05139
-0.18345
-0.04712
0.00969
0.00205
0.08864
0.01028
0.00117
0.08564
-0.01711
-0.13204
-0.03742
-0.01620
-0.13071
-0.03190
0.02191
0.06371
0.20914
0.01961
0.06826
0.20806
0.05483
0.20658
0.40825
0.05517
0.20954
0.41796
0.05483
-0.00724
0.46828
0.38820
0.05328
-0.00606
0.47970
0.37695
0.06899
0.33065
0.65907
0.06907
0.33601
0.65059
1.04733
0.44659
1.03602
0.43976
-0.00211
0.41738
0.39805
-0.00214
0.42555
0.40191
0.43191
0.43603
-0.11227
-0.03512
-0.11627
-0.03036
-0.00417
-0.07116
0.03340
-0.00147
-0.07557
0.03191
-0.05496
-0.18506
-0.05265
-0.05457
-0.18255
-0.05075
0.00814
0.00106
0.11505
0.00699
0.00055
0.10506
-0.02683
-0.14273
-0.01883
-0.02917
-0.14019
-0.02409
0.02410
0.05412
0.25154
0.02231
0.05544
0.25052
0.04661
0.16926
0.39042
0.04408
0.16666
0.38300
0.06456
0.05951
0.31965
0.68305
0.06944
0.05806
0.31293
0.68669
0.24553
0.64948
0.24971
0.66230
-0.00318
0.39990
0.31576
-0.00549
0.40014
0.31850
-0.00540
0.35496
0.35550
0.35965
0.35347
-0.12411
-0.12929
-0.00859
-0.08429
0.01858
-0.01092
-0.08321
0.02127
-0.06703
-0.07633
-0.07219
-0.06267
0.00690
-0.02487
0.10374
0.00799
-0.02088
0.10802
0.01337
0.01863
0.20471
0.01129
0.02150
0.20467
0.04395
0.11466
0.36420
0.04149
0.11779
0.36025
0.02177
0.17369
0.47858
0.02415
0.17154
0.47475
-0.03450
-0.14641
-0.04452
-0.03204
-0.13988
-0.04514
-0.00806
0.34767
0.27353
-0.00595
0.34855
0.27348
-0.00703
0.38354
0.31714
-0.00722
0.39011
0.31852
0.32017
0.32537
-0.01501
-0.09250
0.02957
-0.01845
-0.09437
0.02305
-0.06785
-0.09159
-0.07812
-0.09537
0.00879
-0.04122
0.09693
0.00507
-0.03903
0.09838
0.00583
-0.00847
0.19669
0.00529
-0.00755
0.19476
0.04802
0.05742
0.27629
0.05109
0.05984
0.27412
-0.03820
-0.16315
-0.06602
-0.04028
-0.16098
-0.06283
0.03270
0.08733
0.39525
0.03440
0.08454
0.39185
-0.00674
0.29412
0.24487
-0.01159
0.29100
0.24669
-0.01017
0.31058
0.25611
0.31650
0.25046
-0.01685
-0.12429
-0.02167
-0.01506
-0.12482
-0.02062
-0.00118
-0.07261
0.04395
-0.00431
-0.07470
0.04408
-0.08655
-0.09456
0.01592
-0.04125
0.10017
0.01370
-0.03971
0.10003
0.01518
-0.01878
0.18748
0.01737
-0.01819
0.19094
-0.04295
-0.11371
-0.04496
-0.10755
-0.00527
0.14182
0.20433
-0.00565
0.14461
0.20184
-0.01093
0.21534
0.20133
-0.00950
0.20973
0.19748
0.21317
0.21844
-0.02485
-0.14958
-0.06302
-0.02445
-0.15140
-0.05908
-0.02718
-0.10751
-0.01862
-0.02916
-0.10861
-0.02324
0.01974
-0.07732
0.06867
0.01645
-0.07507
0.06555
0.01020
-0.05222
0.13954
0.00814
-0.04978
0.14112
-0.00698
0.15918
0.13460
-0.00288
0.16737
0.13589
-0.00903
0.15488
0.15739
0.15490
0.15265
-0.04705
-0.14012
-0.05203
-0.13592
-0.04963
-0.18308
-0.11372
-0.05699
-0.18309
-0.10584
-0.03645
-0.14862
-0.07623
-0.04220
-0.14797
-0.07466
0.00066
-0.02820
-0.11992
0.00372
-0.02450
-0.12197
-0.00229
0.01470
0.08004
-0.00335
0.01667
0.07465
-0.00239
0.10290
0.09264
-0.00384
0.10338
0.09035
0.09655
0.09330
-0.08374
-0.08448
-0.07852
-0.08950
-0.03698
-0.00437
-0.04862
-0.15281
-0.04160
-0.00574
-0.04035
-0.15285
-0.13387
-0.13111
-0.00010
0.00158
0.00728
0.00369
0.00397
0.00705
0.00009
0.01658
0.01514
0.01516
0.01660
-0.04570
0.00898
-0.07984
-0.04343
0.00532
-0.08400
0.00839
-0.08596
-0.06469
0.00735
-0.08818
-0.05873
-0.07129
-0.07274
0.00898
0.00685
0.01022
0.00976
0.00970
0.03792
0.03549
0.00975
0.03854
0.03586
0.03486
0.02698
0.03314
0.02508
0.00742
0.00697
0.09086
0.09013
0.00802
0.09723
0.07798
0.00660
0.09739
0.07883
-0.00402
-0.01452
0.01976
-0.00674
-0.01145
0.02077
0.10219
0.06519
0.10241
0.06707
0.00508
0.00453
0.13474
0.11830
0.00454
0.13418
0.11861
0.00568
0.14616
0.10315
0.00488
0.14453
0.10312
-0.00277
-0.05482
-0.03731
0.07229
0.00061
-0.05469
-0.03624
0.07306
0.15262
0.15185
0.14969
0.15042
-0.05520
-0.07542
0.00217
-0.05739
-0.07383
0.00756
-0.11485
-0.04222
-0.11459
-0.03755
0.00164
0.00041
0.15107
0.15230
0.00073
0.17091
0.14215
0.00064
0.16926
0.14456
0.01584
0.18188
0.12751
0.01864
0.18019
0.12815
-0.01606
0.14202
0.23542
-0.01524
0.14135
0.23448
-0.03806
0.02104
0.14173
-0.03650
0.02173
0.14457
-0.03232
-0.02048
0.06175
-0.03313
-0.02042
0.06430
-0.06491
0.00389
-0.06555
0.00446
-0.00173
-0.00338
0.18032
0.17423
-0.00325
0.17920
0.17626
0.00097
0.19625
0.15272
0.00137
0.19454
0.15292
0.01468
0.20083
0.33828
0.01448
0.19885
0.34025
-0.01094
0.06104
0.32449
-0.00890
0.06031
0.32752
-0.01253
0.07546
0.20924
-0.01131
0.07517
0.21254
-0.03953
0.03698
0.12976
-0.03788
0.03640
0.13113
-0.00543
-0.00462
0.22486
0.22741
-0.00521
0.26317
0.19971
-0.00470
0.26103
0.20070
0.03481
0.27638
0.17166
0.03459
0.27434
0.17325
-0.07335
-0.02312
0.04327
-0.07493
-0.02270
0.04187
0.03311
0.30813
0.51369
0.03435
0.30455
0.51545
0.01239
0.16552
0.37494
0.01218
0.16483
0.37689
-0.07711
-0.00156
-0.07640
-0.00310
-0.00944
0.08990
0.25652
-0.00640
0.08814
0.25845
-0.02794
0.05079
0.14629
-0.02787
0.05110
0.14499
-0.00649
-0.00607
0.26633
0.24056
-0.00660
0.26371
0.24031
-0.00326
0.30018
0.21200
-0.00345
0.29731
0.21302
0.02667
0.30815
0.57488
0.02652
0.30615
0.57804
-0.05508
0.00796
0.06562
-0.05896
0.00977
0.07004
0.02401
0.26042
0.61236
0.02424
0.25742
0.61530
0.01503
0.22196
0.42120
0.01615
0.21942
0.42386
-0.00120
0.12839
0.26458
-0.00068
0.12559
0.26740
-0.05217
-0.00003
-0.05085
0.00600
-0.02605
0.08688
0.14529
-0.02428
0.08689
0.15001
-0.00521
-0.00567
0.29411
0.29539
-0.00774
0.32160
0.26399
-0.00663
0.31926
0.26641
0.06134
0.33913
0.22954
0.06077
0.33520
0.23199
-0.05880
0.03392
0.05879
-0.05641
0.03348
0.05864
0.05164
0.95587
0.42026
0.05117
0.96170
0.41889
0.03252
0.34857
0.65248
0.03399
0.34657
0.65245
0.02033
0.28957
0.41375
0.02177
0.28652
0.41470
0.00063
0.15880
0.24245
0.00161
0.15628
0.24206
-0.11015
-0.04646
0.00198
-0.10869
-0.04370
0.00509
-0.01490
0.11043
0.11619
-0.01526
0.10899
0.11615
-0.10552
0.00196
-0.10330
0.00294
-0.00315
-0.00556
0.35136
0.33207
-0.00537
0.35065
0.33444
-0.00388
0.37709
0.30050
-0.00390
0.37529
0.30145
0.04474
0.06418
0.47086
1.05851
0.04381
0.06447
0.46767
1.05590
0.85646
0.38990
0.85698
0.38621
0.04044
0.41510
0.66022
0.04098
0.41274
0.66373
0.02222
0.34040
0.39593
0.02251
0.33853
0.39907
-0.04567
0.04856
0.03815
-0.04288
0.04915
0.04016
0.00661
0.18526
0.20168
0.00701
0.18411
0.20435
-0.09354
-0.03022
0.00303
-0.09386
-0.02853
0.00260
-0.00563
0.12688
0.07761
-0.00510
0.12668
0.08026
-0.10314
-0.00057
-0.10230
-0.00321
-0.00297
-0.00236
0.37116
0.37217
-0.00199
0.40825
0.34071
-0.00225
0.40464
0.34231
0.10456
0.07994
1.63680
0.48579
0.10437
0.08010
1.65058
0.48112
0.07108
0.55539
1.08073
0.07160
0.55302
1.08166
0.43212
0.42565
0.42832
0.42671
0.04598
0.51034
0.62918
0.04584
0.50539
0.62977
0.02245
0.39739
0.34017
0.02294
0.39594
0.34064
-0.03385
0.05730
0.01046
-0.03322
0.05685
0.01142
0.00848
0.17920
0.14285
0.01020
0.17804
0.14479
-0.08800
-0.02866
-0.00525
-0.08939
-0.02815
-0.00541
0.00600
0.11672
0.02955
0.00503
0.11719
0.02876
-0.00004
0.00029
0.43561
0.40661
0.00001
0.43496
0.40964
-0.10512
-0.00680
-0.10446
-0.00651
0.11379
0.08259
0.51833
1.50093
0.11435
0.08110
0.51417
1.49525
0.00071
0.52817
0.45837
0.00114
0.53002
0.45509
0.07283
0.60730
1.07084
0.07254
0.60308
1.07046
0.47792
1.01695
0.47531
1.02770
0.04443
0.58409
0.53177
0.04445
0.58642
0.52557
0.01618
0.38760
0.28254
0.01750
0.38425
0.28476
-0.02166
0.04141
-0.01879
-0.02280
0.04142
-0.01749
0.01436
0.16563
0.09607
0.01411
0.16290
0.09708
-0.05425
-0.04674
-0.05011
-0.05544
-0.04690
-0.04765
0.02015
0.09685
-0.00812
0.01963
0.09700
-0.00614
0.00293
0.00216
0.44290
0.44607
0.00414
0.12967
0.47455
0.66293
0.00395
0.12994
0.47281
0.65944
0.46460
0.68321
0.46334
0.68507
0.16801
0.56821
0.86437
0.16830
0.56475
0.86373
0.11692
0.58105
1.33411
0.11719
0.57823
1.34445
0.06559
0.03472
0.50336
0.52746
0.06525
0.03519
0.50150
0.52784
0.64426
1.04477
0.63887
1.04970
0.01301
0.33752
0.23108
0.01389
0.33554
0.23159
-0.10228
-0.01437
-0.10225
-0.01239
0.01501
0.02055
-0.07333
0.01576
0.02022
-0.07265
0.02307
0.11998
0.05984
0.02157
0.11888
0.06120
0.02205
0.05434
-0.02924
0.02133
0.05384
-0.02786
-0.02205
-0.04871
-0.11793
-0.02245
-0.04959
-0.11567
0.00432
0.00330
0.77989
0.45279
0.00329
0.45133
0.77861
0.00354
0.79121
0.45961
0.00412
0.45833
0.78778
0.12300
0.84143
0.45718
0.12182
0.45450
0.84235
0.17307
0.86892
0.60632
0.17304
0.60440
0.87278
0.10527
1.45347
0.65687
0.10598
0.65836
1.45253
0.05276
0.96075
0.61565
0.05282
0.61170
0.96585
0.01997
0.48129
0.40971
0.01992
0.40782
0.48393
0.01704
0.20456
0.24363
0.01747
0.24165
0.20631
-0.06952
-0.01080
-0.07032
-0.01080
-0.00552
0.00668
-0.09506
0.00682
-0.00336
-0.09506
0.02389
0.06637
0.07253
0.06566
0.02374
0.07253
-0.00336
-0.07032
-0.11567
0.02374
0.00682
-0.02786
0.01232
0.06566
0.20631
0.03564
0.24165
0.48393
0.08911
0.40782
0.96585
0.15572
0.61170
1.45253
0.11212
0.65836
0.87278
0.00108
0.60440
0.84235
0.00242
0.45450
0.78778
0.00280
0.45833
0.77861
0.00280
0.45133
0.45279
0.00242
0.45961
0.77989
0.00108
0.45718
0.79121
0.11212
0.60632
0.84143
0.15572
0.65687
0.86892
0.08911
0.61565
1.45347
0.03564
0.40971
0.96075
0.01232
0.24363
0.48129
0.06637
0.20456
0.02389
0.00668
-0.02924
-0.00552
-0.06952
-0.11793
0.01747
0.05384
0.06120
0.01704
0.05434
0.05984
-0.04959
0.02133
-0.07265
-0.04871
0.02205
-0.07333
-0.02245
-0.01239
-0.02205
-0.01437
0.01992
0.11888
0.23159
0.01997
0.11998
0.23108
0.05282
0.33554
0.52784
0.05276
0.33752
0.52746
0.10598
1.04970
0.50150
0.10527
1.04477
0.50336
0.17304
0.63887
1.34445
0.17307
0.64426
1.33411
0.12182
0.57823
0.86373
0.12300
0.58105
0.86437
0.00412
0.56475
0.65944
0.00354
0.56821
0.66293
0.00329
0.68507
0.47281
0.00330
0.68321
0.47455
0.00432
0.46334
0.44607
0.46460
0.44290
0.02022
-0.10225
-0.04765
0.02055
-0.10228
-0.05011
0.02157
0.01576
-0.00614
0.02307
0.01501
-0.00812
0.01389
0.09700
0.09708
0.01301
0.09685
0.09607
0.01963
-0.04690
-0.01749
0.02015
-0.04674
-0.01879
-0.05544
-0.00651
-0.05425
-0.00680
0.03519
0.16290
0.28476
0.03472
0.16563
0.28254
0.06525
0.11719
0.52557
1.07046
0.06559
0.11692
0.53177
1.07084
0.38425
0.58642
0.38760
0.58409
0.16830
0.60308
1.49525
0.16801
0.60730
1.50093
0.12994
1.02770
0.51417
0.12967
1.01695
0.51833
0.00395
0.00216
0.45509
0.40964
0.00414
0.00293
0.45837
0.40661
0.47531
0.53002
0.47792
0.52817
0.43496
0.43561
0.01411
0.04142
0.02876
0.01436
0.04141
0.02955
-0.02280
-0.10446
-0.00541
-0.02166
-0.10512
-0.00525
0.01750
0.11719
0.14479
0.01618
0.11672
0.14285
0.00503
-0.02815
0.01142
0.00600
-0.02866
0.01046
0.04445
0.17804
0.34064
0.04443
0.17920
0.34017
0.07254
0.39594
0.62977
0.07283
0.39739
0.62918
0.00114
0.08110
0.42671
0.48112
0.00071
0.08259
0.42565
0.48579
0.11435
0.50539
1.08166
0.11379
0.51034
1.08073
0.00001
0.42832
0.34231
0.00029
0.43212
0.34071
0.55302
1.65058
0.55539
1.63680
-0.08939
-0.00321
-0.08800
-0.00057
-0.00004
0.40464
0.37217
0.40825
0.37116
0.01020
0.05685
0.08026
0.00848
0.05730
0.07761
-0.03322
-0.10230
0.00260
-0.03385
-0.10314
0.00303
0.02294
0.12668
0.20435
0.02245
0.12688
0.20168
-0.00510
-0.02853
0.04016
-0.00563
-0.03022
0.03815
0.04584
0.18411
0.39907
0.04598
0.18526
0.39593
0.07160
0.33853
0.66373
0.07108
0.34040
0.66022
0.08010
-0.00225
0.38621
0.30145
0.07994
-0.00199
0.38990
0.30050
0.10437
0.41274
1.05590
0.10456
0.41510
1.05851
0.85698
0.46767
0.85646
0.47086
-0.00236
0.37529
0.33444
-0.00297
0.37709
0.33207
0.35065
0.35136
-0.09386
0.00294
-0.09354
0.00196
0.00701
0.04915
0.11615
0.00661
0.04856
0.11619
-0.04288
-0.10330
0.00509
-0.04567
-0.10552
0.00198
0.02251
0.10899
0.24206
0.02222
0.11043
0.24245
-0.01526
-0.04370
0.05864
-0.01490
-0.04646
0.05879
0.04098
0.15628
0.41470
0.04044
0.15880
0.41375
0.06447
0.28652
0.65245
0.06418
0.28957
0.65248
0.04381
-0.00390
0.41889
0.23199
0.04474
-0.00388
0.42026
0.22954
0.34657
0.96170
0.34857
0.95587
-0.00537
0.33520
0.26641
-0.00556
0.33913
0.26399
-0.00315
0.31926
0.29539
0.32160
0.29411
-0.10869
-0.11015
0.00161
0.03348
0.15001
0.00063
0.03392
0.14529
-0.05641
0.00600
-0.05880
-0.00003
0.02177
0.08689
0.26740
0.02033
0.08688
0.26458
0.03399
0.12559
0.42386
0.03252
0.12839
0.42120
0.05117
0.21942
0.61530
0.05164
0.22196
0.61236
0.06077
0.25742
0.57804
0.06134
0.26042
0.57488
-0.02428
-0.05085
0.07004
-0.02605
-0.05217
0.06562
-0.00663
0.30615
0.21302
-0.00774
0.30815
0.21200
-0.00567
0.29731
0.24031
-0.00521
0.30018
0.24056
0.26371
0.26633
-0.00068
0.00977
0.14499
-0.00120
0.00796
0.14629
-0.05896