# vtk DataFile Version 3.0
Point representing Sub_cellular elem model
ASCII

DATASET UNSTRUCTURED_GRID
POINTS 3657 float
-52.86439 -3.02968 53.24542 
-52.83831 3.26117 53.28435 
-52.47097 -9.27893 52.87243 
-52.45857 9.55966 52.95089 
-49.66640 0.06250 57.10894 
-49.34733 -6.10034 56.80803 
-49.37495 6.24892 56.79213 
-49.81322 -16.92200 53.30379 
-49.68251 17.07882 53.39557 
-49.09356 -12.13603 56.29099 
-48.95586 12.34430 56.42876 
-45.86685 -3.02628 60.03062 
-45.89515 3.12338 60.02304 
-45.60936 -9.17015 59.73281 
-45.59328 9.20394 59.76680 
-46.12194 -19.97796 56.65171 
-46.03423 20.12733 56.68961 
-45.38364 -14.99842 58.80607 
-45.29391 15.06818 58.90054 
-46.79587 -24.44115 53.16378 
-46.71450 24.81497 53.46125 
-46.88466 -29.22768 49.81002 
-46.72323 29.59996 50.01890 
-42.35830 -0.00399 62.78235 
-42.29634 -6.13272 62.77565 
-42.28201 6.14348 62.80101 
-41.84503 -12.00342 62.14165 
-41.80591 12.04579 62.22858 
-41.71198 -17.91452 61.30356 
-41.65951 17.92772 61.39318 
-42.36015 -22.87879 58.82337 
-42.28355 22.99438 58.95866 
-43.13477 -27.78251 56.25052 
-42.99613 28.01890 56.40734 
-42.50329 -33.32520 53.38528 
-42.23006 33.60966 53.43318 
-38.69883 -3.02845 65.15689 
-38.66398 3.06908 65.18355 
-38.39761 -8.97845 64.90293 
-38.36708 8.95242 64.90679 
-37.98234 -14.68335 64.32852 
-37.96098 14.70393 64.37363 
-37.83868 -20.48357 63.14226 
-37.80646 20.57044 63.20379 
-38.55361 -25.50577 61.03051 
-38.42983 25.63898 61.15456 
-38.20448 -31.09801 58.72955 
-38.06949 31.22198 58.88869 
-35.24311 0.01267 67.50210 
-34.99760 -5.86085 67.22459 
-34.91984 5.86367 67.27004 
-34.52459 -11.74078 67.09368 
-34.52131 11.75824 67.11613 
-37.54277 -36.58051 56.05231 
-37.37590 36.75404 56.35331 
-34.16845 -17.45081 66.17297 
-34.18837 17.44428 66.20935 
-34.09375 -23.09851 64.98082 
-34.03157 23.11297 65.07720 
-36.95021 -41.29880 51.82672 
-36.79421 41.65895 52.18811 
-33.77442 -28.58919 63.00461 
-33.62317 28.64371 63.16468 
-33.29018 -34.22999 60.87757 
-33.13465 34.26996 61.06096 
-30.79823 -3.12034 69.60028 
-30.75689 3.06902 69.62646 
-30.35966 -8.99378 69.35162 
-30.36995 9.02265 69.40117 
-29.76916 -14.70910 68.92317 
-29.74690 14.68769 68.96597 
-32.48004 -39.55820 57.63223 
-32.35090 39.65935 57.80192 
-29.57658 -20.46905 67.90161 
-29.55884 20.39817 67.96720 
-30.11332 -25.50236 66.14777 
-30.02135 25.46427 66.27082 
-29.61005 -31.06277 64.20028 
-29.49675 31.09000 64.31884 
-31.85203 -44.59457 54.06951 
-31.45170 44.83162 54.38215 
-29.04108 -36.55101 61.72046 
-28.86877 36.62691 61.82164 
-26.28623 -0.01189 71.62282 
-26.29435 -6.24000 71.63172 
-26.26606 6.22055 71.65300 
-25.53876 -12.18278 71.12825 
-25.46372 12.12250 71.14271 
-28.16039 -41.91134 58.64300 
-28.00813 41.96690 58.79492 
-25.25174 -17.86955 70.51045 
-25.20415 17.79517 70.57536 
-25.59819 -22.86919 68.97441 
-25.54334 22.84625 69.04956 
-26.06650 -27.94715 67.32711 
-25.99997 27.97075 67.40392 
-25.43082 -33.40836 65.05469 
-25.36167 33.44754 65.17425 
-27.15029 -47.05885 54.77495 
-26.89661 47.17447 54.83566 
-24.73208 -38.94927 62.60424 
-24.59026 39.01719 62.70422 
-26.34125 -51.08524 49.52370 
-26.00629 51.38129 49.69563 
-21.78506 -3.14320 73.31029 
-21.71971 3.12545 73.29168 
-21.46010 -9.30781 72.96584 
-21.44856 9.33103 72.97560 
-21.25367 -20.14658 71.31267 
-21.24118 20.13647 71.37888 
-20.92327 -15.04910 72.39429 
-20.84226 15.07080 72.44177 
-21.61594 -25.23832 69.81326 
-21.52673 25.24230 69.85289 
-21.88701 -30.21360 67.88584 
-21.82585 30.26612 67.93735 
-23.59210 -44.30376 59.15061 
-23.42880 44.41149 59.21787 
-21.19997 -35.66976 65.59536 
-21.06019 35.73523 65.66689 
-22.58123 -49.55712 54.96168 
-22.34983 49.66595 55.08316 
-20.14525 -41.19150 62.70681 
-19.98637 41.21646 62.81803 
-21.29722 -53.78639 49.82851 
-20.92752 53.96527 50.01155 
-17.28453 -0.01475 74.90961 
-17.08624 -6.22156 74.55727 
-17.10655 6.19427 74.55483 
-17.03766 -17.44873 73.18385 
-16.95028 17.43619 73.23045 
-17.30397 -22.56888 72.08268 
-17.26082 22.55897 72.12446 
-16.87320 -12.35066 74.15664 
-16.80956 12.30703 74.18865 
-17.47653 -27.53996 70.31259 
-17.45412 27.53902 70.35779 
-17.73821 -32.49681 68.37935 
-17.67275 32.54442 68.42289 
-18.93776 -46.54743 59.17542 
-18.82695 46.57455 59.26660 
-16.70810 -37.92435 65.75580 
-16.52844 37.94753 65.83763 
-17.68966 -51.51971 54.87946 
-17.46488 51.61872 54.96477 
-15.49744 -43.43080 62.91358 
-15.35707 43.47742 62.97285 
-12.83197 -3.17459 75.70986 
-12.79191 3.14828 75.75647 
-16.22403 -55.90675 49.83968 
-15.84080 56.09396 50.05227 
-12.90619 -19.77431 73.73212 
-12.87989 19.77616 73.75303 
-12.64570 -9.41812 75.34381 
-12.64016 9.34024 75.35128 
-13.05137 -24.81877 72.30212 
-12.98570 24.77503 72.34825 
-12.65676 -14.66841 74.71753 
-12.59454 14.61190 74.74861 
-13.14172 -29.81928 70.48566 
-13.10872 29.76901 70.54747 
-13.50235 -34.55615 68.26354 
-13.39006 34.52807 68.34018 
-14.14952 -48.55008 59.12039 
-14.05930 48.59798 59.17137 
-12.22867 -39.97167 65.61650 
-12.16246 39.99584 65.61196 
-12.91443 -53.54783 54.87079 
-12.62536 53.63746 54.92701 
-10.96007 -45.29997 62.36804 
-10.74611 45.35890 62.46447 
-8.52079 -0.00281 76.51567 
-8.45679 -11.68249 75.83708 
-8.42935 11.67496 75.82299 
-8.46766 -6.35051 76.47591 
-8.40687 6.33546 76.48816 
-8.57745 -16.85277 75.19066 
-8.53564 16.84810 75.20755 
-8.72071 -21.89866 73.89004 
-8.62502 21.90785 73.91361 
-8.87208 -31.74031 70.35657 
-8.78321 31.79813 70.39925 
-8.71013 -27.00066 72.44342 
-8.64892 26.99594 72.46853 
-9.08507 -36.56890 68.19727 
-9.02334 36.65125 68.19161 
-10.23809 -57.15117 51.02142 
-9.82166 57.17651 50.99610 
-9.53346 -50.43410 58.62218 
-9.41438 50.43413 58.69546 
-7.77320 -41.86763 65.15211 
-7.64152 41.91837 65.16813 
-6.32067 -47.15508 62.06800 
-6.07567 47.23122 62.06694 
-6.66017 -54.07647 55.59377 
-6.42754 54.07687 55.65514 
-4.18498 -3.17298 76.96913 
-4.13489 3.20412 76.97647 
-4.23986 -8.58857 76.59297 
-4.19772 8.57979 76.59708 
-4.24594 -13.91259 75.97877 
-4.21015 13.88418 76.01362 
-4.34553 -18.94817 75.10330 
-4.30698 18.97400 75.10425 
-4.35168 -23.92748 73.78376 
-4.25184 23.96924 73.78171 
-4.36557 -28.78201 72.07989 
-4.33186 28.73755 72.07865 
-4.48604 -33.53968 69.97996 
-4.43634 33.56266 69.98634 
-4.61521 -38.32622 67.56365 
-4.52912 38.37445 67.55756 
-3.61734 -57.55460 52.00925 
-3.27501 57.57834 51.98933 
-3.31758 -50.74445 59.26846 
-3.12485 50.78074 59.20259 
-3.10272 -43.57248 64.57615 
-2.93166 43.60059 64.57805 
-0.11309 -54.35169 56.27024 
-0.09860 -47.28282 62.08671 
-0.05860 -39.99403 66.95865 
-0.01850 -35.21324 69.35102 
0.00604 -30.47179 71.65584 
-0.05732 -25.57970 73.37542 
-0.01467 -20.85479 74.91101 
-0.00496 -15.86781 75.84171 
-0.00563 -10.75674 76.66406 
-0.04397 -5.34956 77.01489 
0.00000 0.00000 77.31323 
0.04397 5.34956 77.01489 
0.00563 10.75674 76.66406 
0.00496 15.86781 75.84171 
0.01467 20.85479 74.91101 
0.05732 25.57970 73.37542 
-0.00604 30.47179 71.65584 
0.01850 35.21324 69.35102 
0.05860 39.99403 66.95865 
0.09860 47.28282 62.08671 
0.11309 54.35169 56.27024 
2.93166 -43.60059 64.57805 
3.10272 43.57248 64.57615 
3.12485 -50.78074 59.20259 
3.31758 50.74445 59.26846 
3.27501 -57.57834 51.98933 
3.61734 57.55460 52.00925 
4.52912 -38.37445 67.55756 
4.61521 38.32622 67.56365 
4.43634 -33.56266 69.98634 
4.48604 33.53968 69.97996 
4.33186 -28.73755 72.07865 
4.36557 28.78201 72.07989 
4.25184 -23.96924 73.78171 
4.35168 23.92748 73.78376 
4.30698 -18.97400 75.10425 
4.34553 18.94817 75.10330 
4.21015 -13.88418 76.01362 
4.24594 13.91259 75.97877 
4.19772 -8.57979 76.59708 
4.23986 8.58857 76.59297 
4.13489 -3.20412 76.97647 
4.18498 3.17298 76.96913 
6.42754 -54.07687 55.65514 
6.66017 54.07647 55.59377 
6.07567 -47.23122 62.06694 
6.32067 47.15508 62.06800 
7.64152 -41.91837 65.16813 
7.77320 41.86763 65.15211 
9.41438 -50.43413 58.69546 
9.53346 50.43410 58.62218 
9.82166 -57.17651 50.99610 
10.23809 57.15117 51.02142 
9.02334 -36.65125 68.19161 
9.08507 36.56890 68.19727 
8.64892 -26.99594 72.46853 
8.71013 27.00066 72.44342 
8.78321 -31.79813 70.39925 
8.87208 31.74031 70.35657 
8.62502 -21.90785 73.91361 
8.72071 21.89866 73.89004 
8.53564 -16.84810 75.20755 
8.57745 16.85277 75.19066 
8.40687 -6.33546 76.48816 
8.46766 6.35051 76.47591 
8.42935 -11.67496 75.82299 
8.45679 11.68249 75.83708 
8.52079 0.00281 76.51567 
10.74611 -45.35890 62.46447 
10.96007 45.29997 62.36804 
12.62536 -53.63746 54.92701 
12.91443 53.54783 54.87079 
12.16246 -39.99584 65.61196 
12.22867 39.97167 65.61650 
14.05930 -48.59798 59.17137 
14.14952 48.55008 59.12039 
13.39006 -34.52807 68.34018 
13.50235 34.55615 68.26354 
13.10872 -29.76901 70.54747 
13.14172 29.81928 70.48566 
12.59454 -14.61190 74.74861 
12.65676 14.66841 74.71753 
12.98570 -24.77503 72.34825 
13.05137 24.81877 72.30212 
12.64016 -9.34024 75.35128 
12.64570 9.41812 75.34381 
12.87989 -19.77616 73.75303 
12.90619 19.77431 73.73212 
15.84080 -56.09396 50.05227 
16.22403 55.90675 49.83968 
12.79191 -3.14828 75.75647 
12.83197 3.17459 75.70986 
15.35707 -43.47742 62.97285 
15.49744 43.43080 62.91358 
17.46488 -51.61872 54.96477 
17.68966 51.51971 54.87946 
16.52844 -37.94753 65.83763 
16.70810 37.92435 65.75580 
18.82695 -46.57455 59.26660 
18.93776 46.54743 59.17542 
17.67275 -32.54442 68.42289 
17.73821 32.49681 68.37935 
17.45412 -27.53902 70.35779 
17.47653 27.53996 70.31259 
16.80956 -12.30703 74.18865 
16.87320 12.35066 74.15664 
17.26082 -22.55897 72.12446 
17.30397 22.56888 72.08268 
16.95028 -17.43619 73.23045 
17.03766 17.44873 73.18385 
17.10655 -6.19427 74.55483 
17.08624 6.22156 74.55727 
17.28453 0.01475 74.90961 
20.92752 -53.96527 50.01155 
21.29722 53.78639 49.82851 
19.98637 -41.21646 62.81803 
20.14525 41.19150 62.70681 
22.34983 -49.66595 55.08316 
22.58123 49.55712 54.96168 
21.06019 -35.73523 65.66689 
21.19997 35.66976 65.59536 
23.42880 -44.41149 59.21787 
23.59210 44.30376 59.15061 
21.82585 -30.26612 67.93735 
21.88701 30.21360 67.88584 
21.52673 -25.24230 69.85289 
[...]
CELL_DATA 40900
SCALARS Strain double 1
LOOKUP_TABLE default
0.01134
0.00771
-0.06330
-0.05085
0.00882
-0.06270
-0.05452
-0.07831
-0.06714
-0.07641
-0.06420
0.01091
0.01134
0.01108
0.01068
0.01206
0.01039
0.00502
0.01451
0.01103
0.00531
-0.03053
-0.10815
-0.13746
-0.03261
-0.11036
-0.13727
-0.00036
-0.02462
-0.00174
-0.02953
0.00592
0.00839
0.07501
0.07065
0.00621
0.07649
0.07223
0.00280
0.08054
0.06001
0.00348
0.08019
0.06370
-0.02446
-0.06651
-0.10619
-0.04958
-0.02218
-0.05846
-0.10466
-0.05139
0.00945
-0.01158
0.00797
-0.01316
-0.06765
-0.13272
-0.08897
-0.06724
-0.13273
-0.09347
-0.16274
-0.11582
-0.16280
-0.11847
0.00157
0.00288
0.12071
0.12312
0.00256
0.12287
0.10640
0.00337
0.12293
0.10546
0.00688
0.12849
0.11264
0.00502
0.12341
0.11202
-0.02883
-0.04386
0.06455
-0.02602
-0.04484
0.06606
-0.04006
-0.06840
-0.00517
-0.03631
-0.06962
-0.00273
-0.03961
-0.09983
-0.04504
-0.03728
-0.09866
-0.04674
-0.13413
-0.08441
-0.13290
-0.08849
-0.00283
0.00149
0.16970
0.15450
-0.00095
0.16692
0.15652
0.01436
0.16508
0.15138
0.01547
0.16826
0.15311
0.01763
0.11159
0.15344
0.01913
0.10987
0.15214
-0.01755
-0.01587
0.09376
-0.01625
-0.01635
0.09366
-0.01338
-0.03850
0.04512
-0.01378
-0.03937
0.04502
-0.03068
-0.06762
-0.01003
-0.02924
-0.06598
-0.01015
-0.00406
-0.00496
0.19678
0.19999
-0.00059
0.24412
0.18896
-0.00003
0.24083
0.18834
0.01976
0.22939
0.28606
0.01858
0.23151
0.28799
-0.07446
-0.10802
-0.04113
-0.06912
-0.10751
-0.04240
0.01852
0.06815
0.21717
0.01995
0.06984
0.21815
0.00382
0.04408
0.16317
0.00555
0.04270
0.16399
-0.14440
-0.07759
-0.14504
-0.07482
-0.00818
-0.01109
0.08900
-0.00942
-0.01135
0.08876
-0.03241
-0.03755
0.03174
-0.03143
-0.03850
0.03606
-0.00509
-0.00608
0.24842
0.24101
-0.00284
0.24642
0.23996
0.03302
0.29584
0.20616
0.03233
0.29178
0.20580
0.04492
0.26653
0.34726
0.04342
0.26542
0.34955
-0.05986
-0.08262
-0.02318
-0.05304
-0.08067
-0.02264
0.00971
0.13495
0.27827
0.00984
0.13616
0.27934
0.00929
0.08931
0.17132
0.01109
0.08793
0.17124
-0.01155
0.01315
0.10055
-0.00984
0.01200
0.09799
-0.12389
-0.04446
-0.12756
-0.05197
-0.02552
-0.02117
0.03117
-0.02733
-0.02339
0.02965
-0.00365
-0.00354
0.27031
0.27079
-0.00302
0.27687
0.24284
-0.00449
0.27395
0.24099
0.02666
0.30987
0.47303
0.02575
0.31182
0.46959
-0.05787
-0.07214
-0.00634
-0.05565
-0.07230
-0.00247
0.03894
0.46668
0.24082
0.03994
0.45934
0.24536
0.01385
0.19126
0.29845
0.01470
0.18925
0.30203
0.01007
0.12732
0.20439
0.00849
0.12958
0.20471
-0.00798
0.04056
0.09998
-0.00684
0.04050
0.10573
-0.10714
-0.12039
-0.03185
-0.10317
-0.12197
-0.03289
-0.02588
-0.00316
0.04027
-0.02465
-0.00241
0.04138
-0.16177
-0.02721
-0.16344
-0.03011
-0.00230
-0.00220
0.32441
0.30201
-0.00069
0.32293
0.30042
0.04791
0.32369
0.28729
0.04902
0.31954
0.29335
0.06015
0.03982
0.32884
0.46677
0.05676
0.04116
0.33216
0.47057
0.67047
0.36116
0.67544
0.35479
0.02154
0.25227
0.32035
0.02197
0.24952
0.31536
0.00831
0.16049
0.17821
0.00867
0.15913
0.17870
-0.04909
-0.06318
-0.01106
-0.04962
-0.06019
-0.01403
-0.00223
0.05196
0.08568
-0.00413
0.04953
0.08735
-0.09837
-0.11278
-0.02911
-0.09587
-0.11323
-0.02880
-0.01665
-0.00048
0.00907
-0.01746
0.00036
0.00970
-0.16065
-0.02459
-0.16406
-0.02397
0.00018
0.00022
0.30679
0.31276
-0.00287
0.34170
0.29698
-0.00354
0.34989
0.30134
0.05982
0.04637
0.74311
0.40685
0.05965
0.04711
0.73291
0.40019
0.04753
0.39343
0.52544
0.04687
0.39175
0.53009
0.35613
0.36021
0.34822
0.36082
0.01817
0.30141
0.31258
0.01938
0.30285
0.31469
0.00907
0.18954
0.17761
0.00835
0.18811
0.18053
-0.04565
-0.06340
-0.02700
-0.04282
-0.06261
-0.02649
-0.00071
0.05536
0.06594
-0.00105
0.05433
0.06348
-0.09325
-0.11859
-0.04593
-0.09088
-0.11953
-0.04310
-0.01113
0.00414
-0.00587
-0.01157
0.00405
-0.00387
0.00087
0.00035
0.35270
0.34753
-0.00142
0.34763
0.34644
-0.16744
-0.07174
-0.17109
-0.07047
0.06682
0.04545
0.43556
0.75647
0.06346
0.04818
0.43628
0.76423
-0.00145
0.44806
0.38066
-0.00101
0.44235
0.39023
0.04179
0.41874
0.51213
0.04101
0.42420
0.50861
0.39341
0.65060
0.39055
0.64127
0.01992
0.30860
0.31223
0.01928
0.30639
0.31599
0.00573
0.18666
0.14351
0.00741
0.18669
0.14105
-0.03639
-0.06037
-0.05076
-0.03287
-0.05760
-0.05110
0.00104
0.04630
0.03047
0.00154
0.04582
0.03262
-0.04219
-0.12090
-0.11311
-0.03893
-0.12011
-0.11540
0.00265
-0.01019
-0.04676
0.00045
-0.01114
-0.04451
0.00001
0.00014
0.36847
0.37127
-0.00037
0.06191
0.38063
0.51416
0.00066
0.05996
0.38309
0.52128
0.37124
0.51048
0.37327
0.50672
0.09688
0.41694
0.64465
0.09675
0.41639
0.64214
0.05781
0.45615
0.73369
0.05740
0.45086
0.72956
0.03624
0.00900
0.28945
0.28163
0.03689
0.00978
0.28238
0.28126
0.40464
0.53685
0.41027
0.53971
0.00287
0.15724
0.11960
0.00129
0.15760
0.12079
-0.16123
-0.13140
-0.16079
-0.13364
-0.06764
0.00164
-0.11804
-0.06868
0.00252
-0.11483
0.00572
0.03554
0.00429
0.00684
0.03461
0.00550
-0.01272
-0.01650
-0.08050
-0.01326
-0.01546
-0.08194
-0.01435
-0.10029
-0.15700
-0.01044
-0.10284
-0.15748
-0.00054
0.00391
0.56545
0.36851
0.00199
0.36205
0.57331
-0.00032
0.57632
0.36704
-0.00146
0.37256
0.57014
0.05974
0.59712
0.37636
0.06358
0.37599
0.59392
0.08811
0.65023
0.34425
0.08897
0.34219
0.65248
0.05620
0.78022
0.45615
0.05300
0.44541
0.79208
0.01891
0.48721
0.36342
0.02048
0.37223
0.48073
0.00486
0.24915
0.23826
0.00553
0.23412
0.24937
0.00208
0.08163
0.11371
0.00190
0.11239
0.08237
-0.12460
-0.15489
-0.12346
-0.15489
-0.04659
-0.04985
-0.13111
-0.04725
-0.05005
-0.13111
-0.00989
0.00850
-0.01804
0.00836
-0.01111
-0.01804
-0.05005
-0.12346
-0.15748
-0.01111
-0.04725
-0.08194
-0.00327
0.00836
0.08237
0.01272
0.11239
0.24937
0.03801
0.23412
0.48073
0.08223
0.37223
0.79208
0.10176
0.44541
0.65248
0.08555
0.34219
0.59392
0.00254
0.37599
0.57014
-0.00040
0.37256
0.57331
-0.00040
0.36205
0.36851
0.00254
0.36704
0.56545
0.08555
0.37636
0.57632
0.10176
0.34425
0.59712
0.08223
0.45615
0.65023
0.03801
0.36342
0.78022
0.01272
0.23826
0.48721
-0.00327
0.11371
0.24915
0.00850
0.08163
-0.00989
-0.04985
-0.08050
-0.04659
-0.12460
-0.15700
0.00190
-0.01546
0.00550
0.00208
-0.01650
0.00429
-0.10284
-0.01326
-0.11483
-0.10029
-0.01272
-0.11804
-0.01044
-0.13364
-0.01435
-0.13140
0.00553
0.03461
0.12079
0.00486
0.03554
0.11960
0.02048
0.15760
0.28126
0.01891
0.15724
0.28163
0.05300
0.53971
0.28238
0.05620
0.53685
0.28945
0.08897
0.41027
0.72956
0.08811
0.40464
0.73369
0.06358
0.45086
0.64214
0.05974
0.45615
0.64465
-0.00146
0.41639
0.52128
-0.00032
0.41694
0.51416
0.00199
0.50672
0.38309
0.00391
0.51048
0.38063
-0.00054
0.37327
0.37127
0.37124
0.36847
0.00252
-0.16079
-0.11540
0.00164
-0.16123
-0.11311
0.00684
-0.06868
-0.04451
0.00572
-0.06764
-0.04676
0.00129
-0.01114
0.03262
0.00287
-0.01019
0.03047
0.00045
-0.12011
-0.05110
0.00265
-0.12090
-0.05076
-0.03893
-0.07047
-0.04219
-0.07174
0.00978
0.04582
0.14105
0.00900
0.04630
0.14351
0.03689
0.05740
0.31599
0.50861
0.03624
0.05781
0.31223
0.51213
0.18669
0.30639
0.18666
0.30860
0.09675
0.42420
0.76423
0.09688
0.41874
0.75647
0.05996
0.64127
0.43628
0.06191
0.65060
0.43556
0.00066
0.00014
0.39023
0.34644
-0.00037
0.00001
0.38066
0.34753
0.39055
0.44235
0.39341
0.44806
0.34763
0.35270
0.00154
-0.05760
-0.00387
0.00104
-0.06037
-0.00587
-0.03287
-0.17109
-0.04310
-0.03639
-0.16744
-0.04593
0.00741
0.00405
0.06348
0.00573
0.00414
0.06594
-0.01157
-0.11953
-0.02649
-0.01113
-0.11859
-0.02700
0.01928
0.05433
0.18053
0.01992
0.05536
0.17761
0.04101
0.18811
0.31469
0.04179
0.18954
0.31258
-0.00101
0.04818
0.36082
0.40019
-0.00145
0.04545
0.36021
0.40685
0.06346
0.30285
0.53009
0.06682
0.30141
0.52544
-0.00142
0.34822
0.30134
0.00035
0.35613
0.29698
0.39175
0.73291
0.39343
0.74311
-0.09088
-0.02397
-0.09325
-0.02459
0.00087
0.34989
0.31276
0.34170
0.30679
-0.00105
-0.06261
0.00970
-0.00071
-0.06340
0.00907
-0.04282
-0.16406
-0.02880
-0.04565
-0.16065
-0.02911
0.00835
0.00036
0.08735
0.00907
-0.00048
0.08568
-0.01746
-0.11323
-0.01403
-0.01665
-0.11278
-0.01106
0.01938
0.04953
0.17870
0.01817
0.05196
0.17821
0.04687
0.15913
0.31536
0.04753
0.16049
0.32035
0.04711
-0.00354
0.35479
0.29335
0.04637
-0.00287
0.36116
0.28729
0.05965
0.24952
0.47057
0.05982
0.25227
0.46677
0.67544
0.33216
0.67047
0.32884
0.00022
0.31954
0.30042
0.00018
0.32369
0.30201
0.32293
0.32441
-0.09587
-0.03011
-0.09837
-0.02721
-0.00413
-0.06019
0.04138
-0.00223
-0.06318
0.04027
-0.04962
-0.16344
-0.03289
-0.04909
-0.16177
-0.03185
0.00867
-0.00241
0.10573
0.00831
-0.00316
0.09998
-0.02465
-0.12197
-0.00247
-0.02588
-0.12039
-0.00634
0.02197
0.04050
0.20471
0.02154
0.04056
0.20439
0.04116
0.12958
0.30203
0.03982
0.12732
0.29845
0.05676
0.04902
0.24536
0.46959
0.06015
0.04791
0.24082
0.47303
0.18925
0.45934
0.19126
0.46668
-0.00069
0.31182
0.24099
-0.00220
0.30987
0.24284
-0.00230
0.27395
0.27079
0.27687
0.27031
-0.10317
-0.10714
-0.00684
-0.07230
0.02965
-0.00798
-0.07214
0.03117
-0.05565
-0.05197
-0.05787
-0.04446
0.00849
-0.02339
0.09799
0.01007
-0.02117
0.10055
0.01470
0.01200
0.17124
0.01385
0.01315
0.17132
0.03994
0.08793
0.27934
0.03894
0.08931
0.27827
0.02575
0.13616
0.34955
0.02666
0.13495
0.34726
-0.02733
-0.12756
-0.02264
-0.02552
-0.12389
-0.02318
-0.00449
0.26542
0.20580
-0.00302
0.26653
0.20616
-0.00354
0.29178
0.23996
-0.00365
0.29584
0.24101
0.24642
0.24842
-0.00984
-0.08067
0.03606
-0.01155
-0.08262
0.03174
-0.05304
-0.07482
-0.05986
-0.07759
0.01109
-0.03850
0.08876
0.00929
-0.03755
0.08900
0.00984
-0.01135
0.16399
0.00971
-0.01109
0.16317
0.04342
0.04270
0.21815
0.04492
0.04408
0.21717
-0.03143
-0.14504
-0.04240
-0.03241
-0.14440
-0.04113
0.03233
0.06984
0.28799
0.03302
0.06815
0.28606
-0.00284
0.23151
0.18834
-0.00608
0.22939
0.18896
-0.00509
0.24083
0.19999
0.24412
0.19678
-0.00942
-0.10751
-0.01015
-0.00818
-0.10802
-0.01003
0.00555
-0.06598
0.04502
0.00382
-0.06762
0.04512
-0.06912
-0.07446
0.01995
-0.03937
0.09366
0.01852
-0.03850
0.09376
0.01858
-0.01635
0.15214
0.01976
-0.01587
0.15344
-0.02924
-0.08849
-0.03068
-0.08441
-0.00003
0.10987
0.15311
-0.00059
0.11159
0.15138
-0.00496
0.16826
0.15652
-0.00406
0.16508
0.15450
0.16692
0.16970
-0.01378
-0.13290
-0.04674
-0.01338
-0.13413
-0.04504
-0.01625
-0.09866
-0.00273
-0.01755
-0.09983
-0.00517
0.01913
-0.06962
0.06606
0.01763
-0.06840
0.06455
0.01547
-0.04484
0.11202
0.01436
-0.04386
0.11264
-0.00095
0.12341
0.10546
0.00149
0.12849
0.10640
-0.00283
0.12293
0.12312
0.12287
0.12071
-0.03728
-0.11847
-0.03961
-0.11582
-0.03631
-0.16280
-0.09347
-0.04006
-0.16274
-0.08897
-0.02602
-0.13273
-0.05139
-0.02883
-0.13272
-0.04958
0.00502
-0.01316
-0.10466
0.00688
-0.01158
-0.10619
0.00337
0.00797
0.06370
0.00256
0.00945
0.06001
0.00288
0.08019
0.07223
0.00157
0.08054
0.07065
0.07649
0.07501
-0.06724
-0.06765
-0.05846
-0.06651
-0.02218
0.00348
-0.02953
-0.13727
-0.02446
0.00280
-0.02462
-0.13746
-0.11036
-0.10815
0.00621
-0.00174
0.00531
0.00839
-0.00036
0.00502
0.00592
0.01103
0.01068
0.01039
0.01108
-0.03261
0.01451
-0.06420
-0.03053
0.01206
-0.06714
0.01134
-0.07641
-0.05452
0.01091
-0.07831
-0.05085
-0.06270
-0.06330
0.00882
0.00771
0.01134
0.00980
0.00877
0.02893
0.02866
0.00892
0.02952
0.02873
0.02503
0.02353
0.02405
0.02220
0.01051
0.01054
0.07174
0.07147
0.01309
0.07709
0.06131
0.01260
0.07696
0.06163
0.00311
-0.00279
0.00827
0.00233
-0.00129
0.00908
0.08332
0.05812
0.08376
0.05899
0.00858
0.00907
0.10671
0.09312
0.00910
0.10639
0.09321
0.01000
0.11691
0.08217
0.00980
0.11587
0.08180
0.00982
-0.03663
-0.03134
0.06962
0.01137
-0.03538
-0.03064
0.06895
0.11726
0.11932
0.11550
0.11856
-0.04380
-0.06726
0.00619
-0.04506
-0.06584
0.00921
-0.09908
-0.03189
-0.09856
-0.02909
0.00523
0.00433
0.11960
0.12047
0.00496
0.13597
0.11189
0.00500
0.13482
0.11341
0.02080
0.14295
0.09829
0.02247
0.14202
0.09881
-0.00847
0.10875
0.18704
-0.00744
0.10787
0.18573
-0.02438
0.01183
0.12206
-0.02311
0.01232
0.12321
-0.02350
-0.02358
0.05680
-0.02374
-0.02327
0.05766
-0.05923
0.01229
-0.05939
0.01248
0.00149
0.00066
0.14331
0.13718
0.00072
0.14263
0.13845
0.00520
0.15562
0.11922
0.00525
0.15484
0.11902
0.01946
0.15873
0.24979
0.01953
0.15780
0.25039
-0.00100
0.04440
0.25163
0.00014
0.04391
0.25263
-0.00161
0.05280
0.16930
-0.00085
0.05276
0.17085
-0.02333
0.02275
0.10847
-0.02231
0.02271
0.10922
-0.00182
-0.00138
0.17706
0.17859
-0.00085
0.20628
0.15695
-0.00102
0.20497
0.15742
0.03367
0.21694
0.13387
0.03379
0.21528
0.13502
-0.05490
-0.02059
0.04806
-0.05501
-0.02002
0.04705
0.03429
0.23100
0.37022
0.03491
0.22898
0.37086
0.01834
0.12455
0.28606
0.01826
0.12400
0.28675
-0.06861
0.00345
-0.06803
0.00263
0.00072
0.06419
0.20490
0.00207
0.06331
0.20585
-0.01874
0.03571
0.12632
-0.01846
0.03587
0.12573
-0.00348
-0.00301
0.20831
0.18836
-0.00347
0.20664
0.18818
-0.00035
0.23445
0.16658
-0.00052
0.23277
0.16705
0.03091
0.24245
0.40488
0.03044
0.24133
0.40648
-0.04211
0.00107
0.06525
-0.04389
0.00222
0.06793
0.02746
0.19536
0.43719
0.02757
0.19346
0.43881
0.02039
0.16541
0.31783
0.02091
0.16384
0.31913
0.00442
0.09409
0.21242
0.00463
0.09238
0.21383
-0.04839
0.01223
-0.04680
0.01539
-0.01632
0.06286
0.12646
-0.01553
0.06311
0.12922
-0.00290
-0.00318
0.22827
0.22888
-0.00471
0.24892
0.20632
-0.00410
0.24775
0.20748
0.05224
0.26444
0.18002
0.05193
0.26220
0.18139
-0.04314
0.02259
0.05832
-0.04160
0.02244
0.05807
0.04853
0.62731
0.31168
0.04786
0.62940
0.31124
0.03313
0.25873
0.46289
0.03381
0.25760
0.46268
0.02307
0.21478
0.31529
0.02374
0.21319
0.31568
0.00522
0.11734
0.19819
0.00541
0.11601
0.19820
-0.08819
-0.03798
0.01402
-0.08697
-0.03641
0.01534
-0.00974
0.08198
0.10404
-0.01018
0.08116
0.10419
-0.09036
0.00192
-0.08861
0.00211
-0.00167
-0.00362
0.27018
0.25613
-0.00350
0.26987
0.25722
-0.00312
0.28951
0.23416
-0.00321
0.28870
0.23439
0.04451
0.05909
0.34298
0.68746
0.04383
0.05885
0.34162
0.68564
0.57878
0.30352
0.57841
0.30170
0.03851
0.30499
0.46966
0.03859
0.30385
0.47095
0.02322
0.25055
0.30362
0.02300
0.24974
0.30534
-0.03686
0.03598
0.04279
-0.03519
0.03652
0.04388
0.00777
0.13721
0.16839
0.00774
0.13663
0.17015
-0.07722
-0.02573
0.01138
-0.07691
-0.02493
0.01086
-0.00501
0.09494
0.07516
-0.00506
0.09515
0.07667
-0.08718
-0.00047
-0.08672
-0.00221
-0.00195
-0.00166
0.28469
0.28498
-0.00175
0.31083
0.26358
-0.00199
0.30920
0.26417
0.08933
0.06328
0.96628
0.36306
0.08883
0.06337
0.97076
0.36083
0.06322
0.40430
0.70014
0.06336
0.40296
0.70068
0.32884
0.32726
0.32682
0.32754
0.04140
0.36805
0.45130
0.04106
0.36563
0.45138
0.02173
0.29004
0.26652
0.02171
0.28967
0.26683
-0.02929
0.04274
0.02048
-0.02854
0.04255
0.02083
0.00753
0.13325
0.12606
0.00834
0.13291
0.12668
-0.07456
-0.02433
0.00315
-0.07521
-0.02421
0.00309
0.00266
0.08855
0.03694
0.00191
0.08889
0.03669
-0.00049
-0.00025
0.33122
0.31110
-0.00053
0.33106
0.31262
-0.08723
-0.00637
-0.08687
-0.00634
0.09608
0.07008
0.38327
0.89743
0.09609
0.06910
0.38025
0.89592
0.00023
0.39604
0.34837
0.00051
0.39674
0.34681
0.06309
0.43553
0.69062
0.06247
0.43352
0.69017
0.36437
0.69122
0.36292
0.69558
0.03779
0.42297
0.38144
0.03753
0.42450
0.37828
0.01470
0.28492
0.22684
0.01539
0.28296
0.22807
-0.02038
0.03174
-0.00362
-0.02080
0.03217
-0.00294
0.01017
0.12446
0.08860
0.01002
0.12278
0.08934
-0.04714
-0.03773
-0.03506
-0.04750
-0.03780
-0.03388
0.01330
0.07426
0.00622
0.01259
0.07444
0.00755
0.00070
0.00019
0.33957
0.34122
0.00120
0.10014
0.36131
0.48681
0.00101
0.10084
0.36092
0.48385
0.35487
0.49756
0.35457
0.49788
0.13318
0.41594
0.59736
0.13258
0.41543
0.59675
0.09624
0.42131
0.81183
0.09603
0.41974
0.81614
0.05480
0.02767
0.36397
0.38701
0.05446
0.02801
0.36313
0.38685
0.45587
0.67400
0.45313
0.67602
0.01036
0.25277
0.18913
0.01069
0.25194
0.18920
-0.08505
-0.01456
-0.08496
-0.01338
0.01180
0.01485
-0.05241
0.01241
0.01498
-0.05179
0.01645
0.09232
0.06056
0.01565
0.09194
0.06105
0.01823
0.04267
-0.01473
0.01719
0.04280
-0.01410
-0.02023
-0.04013
-0.09341
-0.02019
-0.04057
-0.09215
0.00116
0.00073
0.55928
0.35076
0.00066
0.35065
0.55784
0.00155
0.56503
0.35352
0.00185
0.35365
0.56257
0.09841
0.59499
0.35125
0.09741
0.35059
0.59466
0.13803
0.59603
0.44289
0.13816
0.44191
0.59682
0.08670
0.85712
0.46698
0.08692
0.46718
0.85683
0.04259
0.62926
0.43555
0.04255
0.43415
0.63116
0.01412
0.35608
0.30447
0.01396
0.30348
0.35751
0.01284
0.16773
0.18962
0.01291
0.18853
0.16855
-0.05787
-0.01279
-0.05866
-0.01279
-0.00333
0.00555
-0.07142
0.00618
-0.00263
-0.07142
0.02066
0.05293
0.06578
0.05273
0.02036
0.06578
-0.00263
-0.05866
-0.09215
0.02036
0.00618
-0.01410
0.00731
0.05273
0.16855
0.02726
0.18853
0.35751
0.07268
0.30348
0.63116
0.12798
0.43415
0.85683
0.09153
0.46718
0.59682
0.00093
0.44191
0.59466
0.00072
0.35059
0.56257
0.00074
0.35365
0.55784
0.00074
0.35065
0.35076
0.00072
0.35352
0.55928
0.00093
0.35125
0.56503
0.09153
0.44289
0.59499
0.12798
0.46698
0.59603
0.07268
0.43555
0.85712
0.02726
0.30447
0.62926
0.00731
0.18962
0.35608
0.05293
0.16773
0.02066
0.00555
-0.01473
-0.00333
-0.05787
-0.09341
0.01291
0.04280
0.06105
0.01284
0.04267
0.06056
-0.04057
0.01719
-0.05179
-0.04013
0.01823
-0.05241
-0.02019
-0.01338
-0.02023
-0.01456
0.01396
0.09194
0.18920
0.01412
0.09232
0.18913
0.04255
0.25194
0.38685
0.04259
0.25277
0.38701
0.08692
0.67602
0.36313
0.08670
0.67400
0.36397
0.13816
0.45313
0.81614
0.13803
0.45587
0.81183
0.09741
0.41974
0.59675
0.09841
0.42131
0.59736
0.00185
0.41543
0.48385
0.00155
0.41594
0.48681
0.00066
0.49788
0.36092
0.00073
0.49756
0.36131
0.00116
0.35457
0.34122
0.35487
0.33957
0.01498
-0.08496
-0.03388
0.01485
-0.08505
-0.03506
0.01565
0.01241
0.00755
0.01645
0.01180
0.00622
0.01069
0.07444
0.08934
0.01036
0.07426
0.08860
0.01259
-0.03780
-0.00294
0.01330
-0.03773
-0.00362
-0.04750
-0.00634
-0.04714
-0.00637
0.02801
0.12278
0.22807
0.02767
0.12446
0.22684
0.05446
0.09603
0.37828
0.69017
0.05480
0.09624
0.38144
0.69062
0.28296
0.42450
0.28492
0.42297
0.13258
0.43352
0.89592
0.13318
0.43553
0.89743
0.10084
0.69558
0.38025
0.10014
0.69122
0.38327
0.00101
0.00019
0.34681
0.31262
0.00120
0.00070
0.34837
0.31110
0.36292
0.39674
0.36437
0.39604
0.33106
0.33122
0.01002
0.03217
0.03669
0.01017
0.03174
0.03694
-0.02080
-0.08687
0.00309
-0.02038
-0.08723
0.00315
0.01539
0.08889
0.12668
0.01470
0.08855
0.12606
0.00191
-0.02421
0.02083
0.00266
-0.02433
0.02048
0.03753
0.13291
0.26683
0.03779
0.13325
0.26652
0.06247
0.28967
0.45138
0.06309
0.29004
0.45130
0.00051
0.06910
0.32754
0.36083
0.00023
0.07008
0.32726
0.36306
0.09609
0.36563
0.70068
0.09608
0.36805
0.70014
-0.00053
0.32682
0.26417
-0.00025
0.32884
0.26358
0.40296
0.97076
0.40430
0.96628
-0.07521
-0.00221
-0.07456
-0.00047
-0.00049
0.30920
0.28498
0.31083
0.28469
0.00834
0.04255
0.07667
0.00753
0.04274
0.07516
-0.02854
-0.08672
0.01086
-0.02929
-0.08718
0.01138
0.02171
0.09515
0.17015
0.02173
0.09494
0.16839
-0.00506
-0.02493
0.04388
-0.00501
-0.02573
0.04279
0.04106
0.13663
0.30534
0.04140
0.13721
0.30362
0.06336
0.24974
0.47095
0.06322
0.25055
0.46966
0.06337
-0.00199
0.30170
0.23439
0.06328
-0.00175
0.30352
0.23416
0.08883
0.30385
0.68564
0.08933
0.30499
0.68746
0.57841
0.34162
0.57878
0.34298
-0.00166
0.28870
0.25722
-0.00195
0.28951
0.25613
0.26987
0.27018
-0.07691
0.00211
-0.07722
0.00192
0.00774
0.03652
0.10419
0.00777
0.03598
0.10404
-0.03519
-0.08861
0.01534
-0.03686
-0.09036
0.01402
0.02300
0.08116
0.19820
0.02322
0.08198
0.19819
-0.01018
-0.03641
0.05807
-0.00974
-0.03798
0.05832
0.03859
0.11601
0.31568
0.03851
0.11734
0.31529
0.05885
0.21319
0.46268
0.05909
0.21478
0.46289
0.04383
-0.00321
0.31124
0.18139
0.04451
-0.00312
0.31168
0.18002
0.25760
0.62940
0.25873
0.62731
-0.00350
0.26220
0.20748
-0.00362
0.26444
0.20632
-0.00167
0.24775
0.22888
0.24892
0.22827
-0.08697
-0.08819
0.00541
0.02244
0.12922
0.00522
0.02259
0.12646
-0.04160
0.01539
-0.04314
0.01223
0.02374
0.06311
0.21383
0.02307
0.06286
0.21242
0.03381
0.09238
0.31913
0.03313
0.09409
0.31783
0.04786
0.16384
0.43881
0.04853
0.16541
0.43719
0.05193
0.19346
0.40648
0.05224
0.19536
0.40488
-0.01553
-0.04680
0.06793
-0.01632
-0.04839
0.06525
-0.00410
0.24133
0.16705
-0.00471
0.24245
0.16658
-0.00318
0.23277
0.18818
-0.00290
0.23445
0.18836
0.20664
0.20831
0.00463
0.00222
0.12573
0.00442
0.00107
0.12632
-0.04389
0.00263
-0.04211
0.00345
0.02091
0.03587