# vtk DataFile Version 3.0
Point representing Sub_cellular elem model
ASCII

DATASET UNSTRUCTURED_GRID
POINTS 3657 float
-55.60431 -3.09854 51.67761 
-55.59140 3.21391 51.70868 
-55.21040 -9.36080 51.35205 
-55.20597 9.50852 51.40440 
-52.57792 0.02443 55.28039 
-52.31719 -6.19604 55.05165 
-52.33998 6.25948 55.05052 
-52.30214 -17.43590 52.31698 
-52.23602 17.51201 52.41002 
-51.91698 -12.32562 54.52250 
-51.84255 12.42877 54.63080 
-49.00873 -3.09907 58.39104 
-49.02699 3.13344 58.38882 
-48.69838 -9.30779 58.05819 
-48.69692 9.30296 58.09418 
-48.62862 -20.40928 55.27330 
-48.59365 20.47957 55.33655 
-48.30995 -15.25789 57.18078 
-48.26742 15.27613 57.26681 
-48.84773 -25.31850 52.62939 
-48.79633 25.49690 52.82306 
-48.62688 -30.26623 49.92120 
-48.53854 30.45440 50.07659 
-45.52946 -0.01564 61.35462 
-45.41367 -6.22319 61.25544 
-45.40948 6.20670 61.28127 
-45.00408 -12.19829 60.61433 
-44.98616 12.20356 60.68748 
-44.58530 -18.16285 59.68897 
-44.56496 18.15139 59.77152 
-44.81884 -23.30879 57.57861 
-44.78612 23.35366 57.68740 
-44.98431 -28.37704 55.27356 
-44.92208 28.48729 55.39619 
-43.97483 -33.97387 52.84770 
-43.84812 34.11503 52.92083 
-41.85215 -3.09505 63.95147 
-41.83191 3.09917 63.97359 
-41.57355 -9.11060 63.62284 
-41.56313 9.07383 63.63883 
-41.10700 -14.99065 62.93598 
-41.09946 14.98347 62.98517 
-40.62574 -20.86005 61.75915 
-40.61502 20.89450 61.82160 
-40.86433 -26.00849 59.73743 
-40.80314 26.06827 59.84228 
-40.03825 -31.66832 57.65150 
-39.97891 31.71956 57.77622 
-38.23257 -0.00163 66.47792 
-38.05829 -5.96945 66.22903 
-38.01150 5.95248 66.26878 
-37.62455 -11.92928 65.89429 
-37.62713 11.92384 65.92288 
-38.92484 -37.18593 55.18833 
-38.84652 37.26334 55.39031 
-37.12070 -17.77995 64.93727 
-37.14009 17.76051 64.97932 
-36.65001 -23.53379 63.65769 
-36.62172 23.52686 63.74150 
-37.76761 -42.25203 51.90302 
-37.68288 42.42280 52.12106 
-35.90684 -29.15077 61.80539 
-35.82979 29.16574 61.93030 
-34.96041 -34.76831 59.68266 
-34.88874 34.77581 59.82282 
-33.63458 -3.16519 68.90178 
-33.60937 3.11699 68.92342 
-33.28216 -9.13827 68.58376 
-33.28827 9.14154 68.62302 
-32.70432 -15.03309 67.99002 
-32.69333 15.00710 68.03343 
-33.70474 -40.12618 56.87192 
-33.65229 40.17259 57.00107 
-32.22456 -20.88799 66.88781 
-32.22070 20.83191 66.94935 
-32.42922 -26.05812 65.08279 
-32.38222 26.02040 65.18331 
-31.54250 -31.67742 63.14914 
-31.48733 31.68070 63.24856 
-32.43532 -45.21505 53.73958 
-32.22286 45.32397 53.94764 
-30.50086 -37.18454 60.75985 
-30.41294 37.21699 60.85218 
-28.90058 -0.01380 71.20254 
-28.85331 -6.31205 71.10425 
-28.83696 6.28726 71.12323 
-28.25143 -12.32816 70.55547 
-28.20788 12.27869 70.57935 
-29.16581 -42.49946 57.91128 
-29.09675 42.51784 58.03164 
-27.79203 -18.17962 69.75684 
-27.76506 18.12424 69.81427 
-27.94239 -23.36549 68.17433 
-27.91320 23.34193 68.24047 
-28.10472 -28.53282 66.35689 
-28.07048 28.53835 66.42607 
-27.07822 -34.07305 64.16463 
-27.05018 34.08301 64.25805 
-27.61568 -47.66840 54.50087 
-27.49688 47.72548 54.57792 
-25.93557 -39.54852 61.68359 
-25.86546 39.57727 61.77113 
-26.14181 -52.13585 50.35398 
-25.96906 52.26808 50.48122 
-24.04485 -3.17693 73.09722 
-24.00624 3.15622 73.09087 
-23.79538 -9.40967 72.69330 
-23.79026 9.41398 72.70484 
-23.42259 -20.55770 70.80035 
-23.42039 20.54233 70.85430 
-23.24010 -15.30968 72.01650 
-23.18937 15.31578 72.05836 
-23.58501 -25.77705 69.17147 
-23.52826 25.77307 69.21672 
-23.61298 -30.85688 67.15158 
-23.57874 30.88083 67.20349 
-24.36337 -44.86599 58.53362 
-24.28293 44.92235 58.60209 
-22.53234 -36.34199 64.84961 
-22.45446 36.37212 64.91751 
-22.76437 -50.01053 54.86326 
-22.65662 50.05961 54.95864 
-21.05438 -41.80331 62.06706 
-20.97256 41.80574 62.15784 
-20.96283 -54.45851 50.67911 
-20.78103 54.53547 50.80932 
-19.12723 -0.01342 74.84358 
-18.99274 -6.27455 74.53313 
-19.01075 6.25013 74.53416 
-18.90481 -17.72071 72.95594 
-18.84683 17.70670 72.99706 
-19.05060 -22.96219 71.67486 
-19.02457 22.94986 71.71363 
-18.76848 -12.46270 73.99751 
-18.72958 12.42976 74.02602 
-19.07554 -28.08021 69.83443 
-19.06430 28.07296 69.87678 
-19.10078 -33.10810 67.74531 
-19.06224 33.13139 67.78867 
-19.40972 -47.05205 58.77008 
-19.36276 47.05899 58.84668 
-17.68316 -38.56313 65.19003 
-17.57946 38.56706 65.25976 
-17.68969 -51.95627 54.94977 
-17.58685 52.00515 55.01953 
-16.09706 -43.93373 62.31926 
-16.02551 43.95369 62.37432 
-14.30782 -3.18813 75.86478 
-14.27713 3.16518 75.89568 
-15.77034 -56.37369 50.71126 
-15.57335 56.45067 50.84109 
-14.30016 -20.01846 73.62041 
-14.28816 20.01521 73.64098 
-14.13694 -9.46289 75.44775 
-14.13859 9.40985 75.45719 
-14.34899 -25.23514 72.07605 
-14.30633 25.20238 72.11802 
-14.13490 -14.75090 74.72859 
-14.09710 14.71013 74.75544 
-14.31713 -30.34675 70.15433 
-14.29770 30.31057 70.20586 
-14.47243 -35.17320 67.85803 
-14.40417 35.14788 67.92082 
-14.35630 -48.96580 58.80026 
-14.31930 48.98899 58.84758 
-12.88710 -40.55449 65.19019 
-12.85229 40.56459 65.20430 
-12.63117 -53.77690 54.89183 
-12.48805 53.82006 54.94008 
-11.23648 -45.78636 62.00488 
-11.12323 45.81065 62.07106 
-9.52557 -0.00404 76.79472 
-9.47331 -11.70102 76.03137 
-9.46148 11.69566 76.02560 
-9.46568 -6.35881 76.66840 
-9.42583 6.34628 76.67865 
-9.53581 -16.94695 75.24032 
-9.51148 16.94066 75.25569 
-9.61728 -22.19210 73.87428 
-9.54996 22.19448 73.89683 
-9.63783 -32.28187 70.14900 
-9.57737 32.31450 70.18314 
-9.56264 -27.41063 72.27388 
-9.52222 27.40556 72.29783 
-9.70842 -37.11524 67.83637 
-9.67008 37.16280 67.84102 
-9.74664 -57.37502 51.52075 
-9.53953 57.39044 51.52286 
-9.44501 -50.74831 58.38594 
-9.39221 50.74031 58.43905 
-8.07157 -42.38603 64.84470 
-7.99700 42.41085 64.86280 
-6.31519 -47.50843 61.61829 
-6.18386 47.54832 61.62439 
-6.41666 -54.31954 55.49971 
-6.30497 54.31110 55.54233 
-4.70771 -3.17991 77.29510 
-4.67481 3.19842 77.30032 
-4.74950 -8.57495 76.90602 
-4.72419 8.56838 76.91021 
-4.75396 -13.91467 76.22015 
-4.73156 13.89394 76.24442 
-4.80592 -19.07130 75.22626 
-4.78302 19.08713 75.22864 
-4.80029 -24.26378 73.79672 
-4.73090 24.28938 73.79797 
-4.78764 -29.23001 72.00896 
-4.76483 29.20135 72.01283 
-4.84762 -34.07569 69.83741 
-4.81271 34.08753 69.84561 
-4.89015 -38.84454 67.34352 
-4.83710 38.87172 67.34473 
-3.35056 -57.75868 52.09364 
-3.18565 57.77330 52.08006 
-3.22595 -51.07497 58.87930 
-3.12978 51.09812 58.84926 
-3.13987 -44.01481 64.26906 
-3.04295 44.03001 64.27340 
-0.05354 -54.53417 55.88308 
-0.05188 -47.66139 61.73514 
-0.03472 -40.43336 66.69067 
-0.01288 -35.71711 69.21836 
0.00426 -30.92939 71.54954 
-0.04243 -25.98096 73.39038 
-0.00736 -21.05767 74.98096 
-0.00133 -15.94623 76.05971 
-0.00207 -10.73662 76.93272 
-0.03019 -5.35826 77.36135 
-0.00000 0.00000 77.61005 
0.03019 5.35826 77.36135 
0.00207 10.73662 76.93272 
0.00133 15.94623 76.05971 
0.00736 21.05767 74.98096 
0.04243 25.98096 73.39038 
-0.00426 30.92939 71.54954 
0.01288 35.71711 69.21836 
0.03472 40.43336 66.69067 
0.05188 47.66139 61.73514 
0.05354 54.53417 55.88308 
3.04295 -44.03001 64.27340 
3.13987 44.01481 64.26906 
3.12978 -51.09812 58.84926 
3.22595 51.07497 58.87930 
3.18565 -57.77330 52.08006 
3.35056 57.75868 52.09364 
4.83710 -38.87172 67.34473 
4.89015 38.84454 67.34352 
4.81271 -34.08753 69.84561 
4.84762 34.07569 69.83741 
4.76483 -29.20135 72.01283 
4.78764 29.23001 72.00896 
4.73090 -24.28938 73.79797 
4.80029 24.26378 73.79672 
4.78302 -19.08713 75.22864 
4.80592 19.07130 75.22626 
4.73156 -13.89394 76.24442 
4.75396 13.91467 76.22015 
4.72419 -8.56838 76.91021 
4.74950 8.57495 76.90602 
4.67481 -3.19842 77.30032 
4.70771 3.17991 77.29510 
6.30497 -54.31110 55.54233 
6.41666 54.31954 55.49971 
6.18386 -47.54832 61.62439 
6.31519 47.50843 61.61829 
7.99700 -42.41085 64.86280 
8.07157 42.38603 64.84470 
9.39221 -50.74031 58.43905 
9.44501 50.74831 58.38594 
9.53953 -57.39044 51.52286 
9.74664 57.37502 51.52075 
9.67008 -37.16280 67.84102 
9.70842 37.11524 67.83637 
9.52222 -27.40556 72.29783 
9.56264 27.41063 72.27388 
9.57737 -32.31450 70.18314 
9.63783 32.28187 70.14900 
9.54996 -22.19448 73.89683 
9.61728 22.19210 73.87428 
9.51148 -16.94066 75.25569 
9.53581 16.94695 75.24032 
9.42583 -6.34628 76.67865 
9.46568 6.35881 76.66840 
9.46148 -11.69566 76.02560 
9.47331 11.70102 76.03137 
9.52557 0.00404 76.79472 
11.12323 -45.81065 62.07106 
11.23648 45.78636 62.00488 
12.48805 -53.82006 54.94008 
12.63117 53.77690 54.89183 
12.85229 -40.56459 65.20430 
12.88710 40.55449 65.19019 
14.31930 -48.98899 58.84758 
14.35630 48.96580 58.80026 
14.40417 -35.14788 67.92082 
14.47243 35.17320 67.85803 
14.29770 -30.31057 70.20586 
14.31713 30.34675 70.15433 
14.09710 -14.71013 74.75544 
14.13490 14.75090 74.72859 
14.30633 -25.20238 72.11802 
14.34899 25.23514 72.07605 
14.13859 -9.40985 75.45719 
14.13694 9.46289 75.44775 
14.28816 -20.01521 73.64098 
14.30016 20.01846 73.62041 
15.57335 -56.45067 50.84109 
15.77034 56.37369 50.71126 
14.27713 -3.16518 75.89568 
14.30782 3.18813 75.86478 
16.02551 -43.95369 62.37432 
16.09706 43.93373 62.31926 
17.58685 -52.00515 55.01953 
17.68969 51.95627 54.94977 
17.57946 -38.56706 65.25976 
17.68316 38.56313 65.19003 
19.36276 -47.05899 58.84668 
19.40972 47.05205 58.77008 
19.06224 -33.13139 67.78867 
19.10078 33.10810 67.74531 
19.06430 -28.07296 69.87678 
19.07554 28.08021 69.83443 
18.72958 -12.42976 74.02602 
18.76848 12.46270 73.99751 
19.02457 -22.94986 71.71363 
19.05060 22.96219 71.67486 
18.84683 -17.70670 72.99706 
18.90481 17.72071 72.95594 
19.01075 -6.25013 74.53416 
18.99274 6.27455 74.53313 
19.12723 0.01342 74.84358 
20.78103 -54.53547 50.80932 
20.96283 54.45851 50.67911 
20.97256 -41.80574 62.15784 
21.05438 41.80331 62.06706 
22.65662 -50.05961 54.95864 
22.76437 50.01053 54.86326 
22.45446 -36.37212 64.91751 
22.53234 36.34199 64.84961 
24.28293 -44.92235 58.60209 
24.36337 44.86599 58.53362 
23.57874 -30.88083 67.20349 
23.61298 30.85688 67.15158 
23.52826 -25.77307 69.21672 
[...]
CELL_DATA 40900
SCALARS Strain double 1
LOOKUP_TABLE default
0.01481
0.01091
-0.03467
-0.02765
0.00918
-0.03659
-0.02456
-0.04843
-0.01655
-0.04797
-0.01716
0.01956
0.01846
-0.00273
-0.00021
0.02979
-0.00175
-0.00063
0.02858
-0.00356
0.00032
0.00837
-0.03343
-0.08586
0.00797
-0.03300
-0.08589
-0.01108
0.01766
-0.01013
0.02263
0.01947
0.01949
0.03086
0.02257
0.02126
0.02751
0.02336
0.02392
0.02514
0.02313
0.02229
0.02461
0.02344
0.02312
0.00626
-0.05518
0.01851
0.01894
0.00429
-0.05578
0.01811
-0.01043
0.02199
-0.01063
0.02655
-0.01358
-0.08150
-0.03194
-0.01456
-0.08071
-0.02856
-0.09355
-0.04920
-0.09356
-0.04780
0.01470
0.01525
0.04588
0.04386
0.01763
0.04818
0.03600
0.01724
0.04785
0.03680
0.01626
0.03938
0.04410
0.01624
0.03973
0.04667
0.00865
-0.02564
0.05810
0.00433
-0.02398
0.05825
0.00789
-0.04774
0.04066
0.00311
-0.04651
0.03906
-0.00225
-0.07041
-0.00204
-0.00588
-0.06985
0.00131
-0.07746
-0.01027
-0.07774
-0.00824
0.01296
0.01267
0.06249
0.05720
0.01447
0.06374
0.05640
0.03085
0.06540
0.03777
0.02937
0.06318
0.03865
0.02079
0.03559
0.06673
0.01785
0.03578
0.07066
0.01394
-0.00906
0.07433
0.01322
-0.00955
0.07504
0.01646
-0.03319
0.04644
0.01628
-0.03291
0.04742
0.00955
-0.04543
0.02179
0.00883
-0.04586
0.02404
0.01091
0.01143
0.07887
0.07849
0.01370
0.09474
0.06255
0.01412
0.09519
0.06521
0.02680
0.09967
0.07895
0.02783
0.09919
0.07953
-0.00840
-0.05486
0.02360
-0.01156
-0.05462
0.02782
0.03174
0.02815
0.09378
0.03138
0.02655
0.09370
0.02522
0.00576
0.08984
0.02400
0.00612
0.08988
-0.08935
-0.01964
-0.08682
-0.02063
0.01100
-0.01858
0.06656
0.01079
-0.01794
0.06990
-0.00828
-0.03128
0.05593
-0.01063
-0.02961
0.05623
0.00980
0.01025
0.09029
0.08067
0.00887
0.09335
0.08084
0.03158
0.11267
0.06181
0.03330
0.11111
0.06156
0.03074
0.10387
0.10860
0.03304
0.10131
0.10930
-0.00613
-0.04818
0.03933
-0.00845
-0.04692
0.04026
0.02272
0.05211
0.11244
0.02212
0.05110
0.10942
0.02126
0.02256
0.09497
0.01836
0.02484
0.09545
0.00763
-0.00658
0.08249
0.00517
-0.00418
0.08463
-0.07134
0.01517
-0.06760
0.02255
-0.00566
-0.02070
0.05954
-0.00564
-0.01895
0.06128
0.00770
0.00747
0.10171
0.09987
0.00677
0.10953
0.08458
0.00725
0.10888
0.08456
0.03555
0.13402
0.12605
0.03766
0.13966
0.12264
-0.01431
-0.03878
0.04458
-0.01936
-0.03677
0.04532
0.03499
0.14339
0.09223
0.03290
0.14341
0.09307
0.02284
0.06684
0.12946
0.02060
0.06872
0.12751
0.01681
0.03907
0.10434
0.01484
0.04010
0.10435
0.00175
0.00506
0.08778
0.00006
0.00739
0.08474
-0.03127
-0.05691
0.02848
-0.03225
-0.05559
0.03011
-0.01379
-0.01165
0.06349
-0.01546
-0.01049
0.06439
-0.09250
-0.01198
-0.09158
-0.01093
0.00792
0.00877
0.11277
0.10571
0.00797
0.11475
0.10910
0.02585
0.12877
0.10812
0.02598
0.12959
0.10726
0.03914
0.03145
0.11985
0.15425
0.03973
0.03022
0.11685
0.15305
0.16861
0.14387
0.16979
0.14366
0.02222
0.08487
0.12953
0.01974
0.08612
0.13348
0.01399
0.05371
0.10992
0.01287
0.05476
0.10995
-0.02982
-0.02707
0.04905
-0.03097
-0.02829
0.05302
-0.00184
0.01344
0.08589
-0.00124
0.01542
0.08501
-0.03821
-0.05725
0.02669
-0.04014
-0.05563
0.02721
-0.01528
-0.00346
0.06093
-0.01592
-0.00317
0.06133
-0.08409
-0.00106
-0.08206
-0.00055
0.00822
0.00829
0.11494
0.11248
0.00840
0.13032
0.11027
0.00874
0.12695
0.11044
0.03879
0.03172
0.18897
0.14443
0.03848
0.03061
0.19328
0.14501
0.03124
0.13909
0.16242
0.03016
0.13998
0.16175
0.14275
0.14241
0.14546
0.14304
0.01868
0.10350
0.13496
0.01714
0.10141
0.13553
0.00888
0.06561
0.11149
0.00856
0.06541
0.11043
-0.02714
-0.02886
0.04430
-0.03005
-0.02750
0.04513
-0.00528
0.01910
0.07998
-0.00723
0.02000
0.08474
-0.04401
-0.05186
0.02677
-0.04525
-0.04901
0.02514
-0.01795
-0.00247
0.05894
-0.01783
-0.00007
0.05588
0.00563
0.00577
0.13383
0.12458
0.00734
0.13717
0.12316
-0.08238
-0.01913
-0.07974
-0.01751
0.04251
0.03844
0.14881
0.19826
0.04319
0.03673
0.14896
0.19305
0.00697
0.16040
0.14308
0.00610
0.15749
0.14212
0.02828
0.14482
0.16175
0.02883
0.14522
0.16125
0.15376
0.20917
0.15813
0.20957
0.01402
0.13792
0.10331
0.01338
0.13198
0.10477
0.00566
0.06667
0.10062
0.00239
0.07089
0.10059
-0.03058
-0.01966
0.04062
-0.03305
-0.02148
0.04038
-0.00628
0.01889
0.07703
-0.00687
0.02154
0.07372
-0.02323
-0.05049
-0.01762
-0.02640
-0.04924
-0.01553
-0.01566
-0.00007
0.04869
-0.01411
0.00344
0.04604
0.00128
0.00204
0.13747
0.13286
0.00097
0.02698
0.15091
0.18806
0.00149
0.02573
0.14982
0.18790
0.14397
0.18002
0.14616
0.18093
0.04536
0.15321
0.19147
0.04451
0.15336
0.19106
0.03660
0.15336
0.17617
0.03749
0.15752
0.17457
0.02099
0.00581
0.10195
0.13228
0.01942
0.00284
0.10253
0.13498
0.13605
0.16276
0.13553
0.16538
-0.00029
0.06727
0.09182
-0.00093
0.06738
0.09086
-0.07617
-0.05031
-0.07464
-0.04843
-0.02851
-0.00442
-0.00572
-0.02726
-0.00837
-0.00807
-0.00468
0.01779
0.06028
-0.00660
0.01942
0.05875
-0.00074
-0.00428
0.00715
-0.00005
-0.00378
0.00860
-0.01461
-0.04685
-0.04023
-0.01869
-0.04268
-0.04045
-0.00039
0.00010
0.20154
0.15244
0.00086
0.15548
0.19870
0.00399
0.19090
0.15026
0.00404
0.14808
0.19307
0.03223
0.20007
0.14708
0.03084
0.14919
0.20118
0.05336
0.18526
0.13441
0.05262
0.13538
0.18558
0.03129
0.18849
0.14201
0.03298
0.14416
0.18827
0.01222
0.16017
0.12735
0.01022
0.12434
0.16300
-0.00235
0.11957
0.09448
-0.00346
0.09620
0.12075
0.00069
0.07365
0.06172
0.00064
0.06263
0.07257
-0.06140
-0.06523
-0.05900
-0.06523
-0.01967
-0.01114
-0.01818
-0.01309
-0.01912
-0.01818
0.00533
0.01035
0.03230
0.01106
0.00470
0.03230
-0.01912
-0.05900
-0.04045
0.00470
-0.01309
0.00860
-0.00861
0.01106
0.07257
0.00162
0.06263
0.12075
0.01977
0.09620
0.16300
0.04425
0.12434
0.18827
0.04096
0.14416
0.18558
0.02912
0.13538
0.20118
-0.00178
0.14919
0.19307
0.00071
0.14808
0.19870
0.00071
0.15548
0.15244
-0.00178
0.15026
0.20154
0.02912
0.14708
0.19090
0.04096
0.13441
0.20007
0.04425
0.14201
0.18526
0.01977
0.12735
0.18849
0.00162
0.09448
0.16017
-0.00861
0.06172
0.11957
0.01035
0.07365
0.00533
-0.01114
0.00715
-0.01967
-0.06140
-0.04023
0.00064
-0.00378
0.05875
0.00069
-0.00428
0.06028
-0.04268
-0.00005
-0.00807
-0.04685
-0.00074
-0.00572
-0.01869
-0.04843
-0.01461
-0.05031
-0.00346
0.01942
0.09086
-0.00235
0.01779
0.09182
0.01022
0.06738
0.13498
0.01222
0.06727
0.13228
0.03298
0.16538
0.10253
0.03129
0.16276
0.10195
0.05262
0.13553
0.17457
0.05336
0.13605
0.17617
0.03084
0.15752
0.19106
0.03223
0.15336
0.19147
0.00404
0.15336
0.18790
0.00399
0.15321
0.18806
0.00086
0.18093
0.14982
0.00010
0.18002
0.15091
-0.00039
0.14616
0.13286
0.14397
0.13747
-0.00837
-0.07464
-0.01553
-0.00442
-0.07617
-0.01762
-0.00660
-0.02726
0.04604
-0.00468
-0.02851
0.04869
-0.00093
0.00344
0.07372
-0.00029
-0.00007
0.07703
-0.01411
-0.04924
0.04038
-0.01566
-0.05049
0.04062
-0.02640
-0.01751
-0.02323
-0.01913
0.00284
0.02154
0.10059
0.00581
0.01889
0.10062
0.01942
0.03749
0.10477
0.16125
0.02099
0.03660
0.10331
0.16175
0.07089
0.13198
0.06667
0.13792
0.04451
0.14522
0.19305
0.04536
0.14482
0.19826
0.02573
0.20957
0.14896
0.02698
0.20917
0.14881
0.00149
0.00204
0.14212
0.12316
0.00097
0.00128
0.14308
0.12458
0.15813
0.15749
0.15376
0.16040
0.13717
0.13383
-0.00687
-0.02148
0.05588
-0.00628
-0.01966
0.05894
-0.03305
-0.07974
0.02514
-0.03058
-0.08238
0.02677
0.00239
-0.00007
0.08474
0.00566
-0.00247
0.07998
-0.01783
-0.04901
0.04513
-0.01795
-0.05186
0.04430
0.01338
0.02000
0.11043
0.01402
0.01910
0.11149
0.02883
0.06541
0.13553
0.02828
0.06561
0.13496
0.00610
0.03673
0.14304
0.14501
0.00697
0.03844
0.14241
0.14443
0.04319
0.10141
0.16175
0.04251
0.10350
0.16242
0.00734
0.14546
0.11044
0.00577
0.14275
0.11027
0.13998
0.19328
0.13909
0.18897
-0.04525
-0.00055
-0.04401
-0.00106
0.00563
0.12695
0.11248
0.13032
0.11494
-0.00723
-0.02750
0.06133
-0.00528
-0.02886
0.06093
-0.03005
-0.08206
0.02721
-0.02714
-0.08409
0.02669
0.00856
-0.00317
0.08501
0.00888
-0.00346
0.08589
-0.01592
-0.05563
0.05302
-0.01528
-0.05725
0.04905
0.01714
0.01542
0.10995
0.01868
0.01344
0.10992
0.03016
0.05476
0.13348
0.03124
0.05371
0.12953
0.03061
0.00874
0.14366
0.10726
0.03172
0.00840
0.14387
0.10812
0.03848
0.08612
0.15305
0.03879
0.08487
0.15425
0.16979
0.11685
0.16861
0.11985
0.00829
0.12959
0.10910
0.00822
0.12877
0.10571
0.11475
0.11277
-0.04014
-0.01093
-0.03821
-0.01198
-0.00124
-0.02829
0.06439
-0.00184
-0.02707
0.06349
-0.03097
-0.09158
0.03011
-0.02982
-0.09250
0.02848
0.01287
-0.01049
0.08474
0.01399
-0.01165
0.08778
-0.01546
-0.05559
0.04532
-0.01379
-0.05691
0.04458
0.01974
0.00739
0.10435
0.02222
0.00506
0.10434
0.03022
0.04010
0.12751
0.03145
0.03907
0.12946
0.03973
0.02598
0.09307
0.12264
0.03914
0.02585
0.09223
0.12605
0.06872
0.14341
0.06684
0.14339
0.00797
0.13966
0.08456
0.00877
0.13402
0.08458
0.00792
0.10888
0.09987
0.10953
0.10171
-0.03225
-0.03127
0.00006
-0.03677
0.06128
0.00175
-0.03878
0.05954
-0.01936
0.02255
-0.01431
0.01517
0.01484
-0.01895
0.08463
0.01681
-0.02070
0.08249
0.02060
-0.00418
0.09545
0.02284
-0.00658
0.09497
0.03290
0.02484
0.10942
0.03499
0.02256
0.11244
0.03766
0.05110
0.10930
0.03555
0.05211
0.10860
-0.00564
-0.06760
0.04026
-0.00566
-0.07134
0.03933
0.00725
0.10131
0.06156
0.00677
0.10387
0.06181
0.00747
0.11111
0.08084
0.00770
0.11267
0.08067
0.09335
0.09029
0.00517
-0.04692
0.05623
0.00763
-0.04818
0.05593
-0.00845
-0.02063
-0.00613
-0.01964
0.01836
-0.02961
0.06990
0.02126
-0.03128
0.06656
0.02212
-0.01794
0.08988
0.02272
-0.01858
0.08984
0.03304
0.00612
0.09370
0.03074
0.00576
0.09378
-0.01063
-0.08682
0.02782
-0.00828
-0.08935
0.02360
0.03330
0.02655
0.07953
0.03158
0.02815
0.07895
0.00887
0.09919
0.06521
0.01025
0.09967
0.06255
0.00980
0.09519
0.07849
0.09474
0.07887
0.01079
-0.05462
0.02404
0.01100
-0.05486
0.02179
0.02400
-0.04586
0.04742
0.02522
-0.04543
0.04644
-0.01156
-0.00840
0.03138
-0.03291
0.07504
0.03174
-0.03319
0.07433
0.02783
-0.00955
0.07066
0.02680
-0.00906
0.06673
0.00883
-0.00824
0.00955
-0.01027
0.01412
0.03578
0.03865
0.01370
0.03559
0.03777
0.01143
0.06318
0.05640
0.01091
0.06540
0.05720
0.06374
0.06249
0.01628
-0.07774
0.00131
0.01646
-0.07746
-0.00204
0.01322
-0.06985
0.03906
0.01394
-0.07041
0.04066
0.01785
-0.04651
0.05825
0.02079
-0.04774
0.05810
0.02937
-0.02398
0.04667
0.03085
-0.02564
0.04410
0.01447
0.03973
0.03680
0.01267
0.03938
0.03600
0.01296
0.04785
0.04386
0.04818
0.04588
-0.00588
-0.04780
-0.00225
-0.04920
0.00311
-0.09356
-0.02856
0.00789
-0.09355
-0.03194
0.00433
-0.08071
0.01811
0.00865
-0.08150
0.01851
0.01624
0.02655
-0.05578
0.01626
0.02199
-0.05518
0.01724
-0.01063
0.02344
0.01763
-0.01043
0.02313
0.01525
0.02461
0.02336
0.01470
0.02514
0.02257
0.02751
0.03086
-0.01456
-0.01358
0.00429
0.00626
0.01894
0.02229
0.02263
-0.08589
0.02312
0.02392
0.01766
-0.08586
-0.03300
-0.03343
0.02126
-0.01013
0.00032
0.01949
-0.01108
-0.00063
0.01947
-0.00356
-0.00021
-0.00175
-0.00273
0.00797
0.02858
-0.01716
0.00837
0.02979
-0.01655
0.01846
-0.04797
-0.02456
0.01956
-0.04843
-0.02765
-0.03659
-0.03467
0.00918
0.01091
0.01481
0.00981
0.00597
0.00628
0.01042
0.00647
0.00634
0.01007
-0.00036
0.01427
-0.00011
0.01458
0.01730
0.01824
0.02428
0.02514
0.02502
0.02763
0.01903
0.02675
0.02679
0.01875
0.02290
0.02369
-0.02026
0.02502
0.02200
-0.02013
0.03566
0.03591
0.03638
0.03504
0.01605
0.01910
0.04010
0.03226
0.01908
0.04003
0.03238
0.01965
0.04726
0.02957
0.02044
0.04732
0.02951
0.03710
0.01498
-0.01617
0.05560
0.03530
0.01726
-0.01628
0.05354
0.03405
0.04052
0.03440
0.04154
-0.00951
-0.04266
0.01596
-0.00870
-0.04209
0.01467
-0.05221
-0.00284
-0.05149
-0.00420
0.01342
0.01322
0.04561
0.04638
0.01475
0.05521
0.03984
0.01508
0.05457
0.04019
0.03201
0.05348
0.02721
0.03141
0.05360
0.02797
0.01207
0.03030
0.07652
0.01259
0.02945
0.07570
0.01202
-0.01106
0.07079
0.01256
-0.01114
0.06993
0.00214
-0.03090
0.04255
0.00276
-0.03034
0.04044
-0.04177
0.03544
-0.04107
0.03514
0.00948
0.01090
0.05868
0.05162
0.01059
0.05851
0.05183
0.01600
0.06389
0.04046
0.01540
0.06428
0.04014
0.03173
0.06427
0.06932
0.03210
0.06460
0.06868
0.02517
0.00312
0.09899
0.02429
0.00305
0.09803
0.02695
-0.00198
0.07785
0.02640
-0.00174
0.07708
0.01993
-0.01193
0.05828
0.01935
-0.01112
0.05876
0.00800
0.00778
0.07075
0.07091
0.01113
0.08399
0.05983
0.00974
0.08378
0.06000
0.03154
0.09023
0.04620
0.03213
0.08925
0.04715
-0.00007
-0.01397
0.05956
0.00251
-0.01350
0.05976
0.03771
0.07324
0.11004
0.03723
0.07342
0.10986
0.03445
0.03119
0.10783
0.03431
0.03098
0.10747
-0.04501
0.01916
-0.04506
0.02009
0.02660
0.00347
0.09302
0.02477
0.00411
0.09301
0.00714
-0.00149
0.08072
0.00746
-0.00181
0.08149
0.00569
0.00661
0.08410
0.07374
0.00655
0.08364
0.07411
0.00893
0.09760
0.06451
0.00872
0.09779
0.06447
0.04311
0.10602
0.10997
0.04210
0.10622
0.10986
-0.00257
-0.01706
0.06522
-0.00041
-0.01741
0.06458
0.03829
0.05742
0.13806
0.03796
0.05727
0.13876
0.03497
0.04282
0.11870
0.03431
0.04280
0.11877
0.02019
0.01508
0.10076
0.01968
0.01537
0.10040
-0.03599
0.04826
-0.03508
0.04524
0.01117
0.00523
0.08259
0.00979
0.00574
0.08220
0.00525
0.00511
0.08943
0.08940
0.00552
0.09996
0.08182
0.00518
0.10019
0.08123
0.03174
0.11388
0.07051
0.03182
0.11364
0.07036
0.00192
-0.00547
0.05898
0.00157
-0.00524
0.05889
0.04274
0.16158
0.10563
0.04201
0.16077
0.10624
0.03640
0.08014
0.14530
0.03551
0.08018
0.14549
0.03153
0.06022
0.12407
0.03049
0.06096
0.12416
0.01849
0.02358
0.10188
0.01731
0.02439
0.10308
-0.01868
-0.01493
0.04846
-0.01874
-0.01604
0.04633
0.00575
0.01472
0.07623
0.00503
0.01519
0.07672
-0.04771
0.00529
-0.04731
0.00434
0.00443
0.00405
0.10672
0.10021
0.00401
0.10661
0.09942
0.00165
0.11699
0.09402
0.00139
0.11730
0.09365
0.04658
0.04872
0.10788
0.18358
0.04648
0.04768
0.10885
0.18326
0.16585
0.13465
0.16532
0.13539
0.03617
0.09560
0.15178
0.03525
0.09585
0.15083
0.02779
0.07149
0.12284
0.02675
0.07211
0.12291
-0.01124
0.00452
0.05754
-0.01212
0.00506
0.05695
0.01299
0.03077
0.09413
0.01191
0.03095
0.09454
-0.02632
-0.01519
0.03741
-0.02529
-0.01591
0.03683
-0.00134
0.02075
0.07047
-0.00250
0.02162
0.07018
-0.04034
0.00599
-0.04077
0.00658
0.00308
0.00283
0.11235
0.11209
0.00165
0.12288
0.10569
0.00125
0.12402
0.10533
0.05487
0.02510
0.23837
0.13776
0.05413
0.02516
0.23763
0.13851
0.04638
0.13877
0.18556
0.04573
0.13846
0.18617
0.13353
0.13678
0.13357
0.13660
0.03286
0.11272
0.14872
0.03244
0.11351
0.14857
0.02261
0.08347
0.11657
0.02150
0.08460
0.11692
-0.01466
0.00645
0.04995
-0.01404
0.00678
0.04929
0.00737
0.03107
0.08699
0.00638
0.03199
0.08534
-0.03385
-0.01301
0.03087
-0.03299
-0.01351
0.03138
-0.00323
0.02229
0.05880
-0.00363
0.02237
0.05953
0.00072
0.00079
0.13154
0.12350
0.00051
0.13174
0.12321
-0.03378
0.00050
-0.03418
0.00016
0.05618
0.04185
0.13919
0.21331
0.05516
0.04211
0.13785
0.21472
0.00183
0.15556
0.14196
0.00169
0.15519
0.14261
0.04228
0.14173
0.17665
0.04119
0.14214
0.17653
0.15469
0.23268
0.15435
0.23156
0.02502
0.14221
0.11434
0.02424
0.14338
0.11507
0.01389
0.08568
0.10868
0.01329
0.08584
0.10857
-0.01541
0.00775
0.04123
-0.01455
0.00913
0.04075
0.00254
0.03221
0.07175
0.00242
0.03230
0.07213
-0.02541
-0.01222
0.01125
-0.02429
-0.01205
0.00967
-0.00209
0.02098
0.04737
-0.00297
0.02113
0.04750
-0.00296
-0.00283
0.14093
0.14085
-0.00421
0.03340
0.14976
0.18991
-0.00436
0.03456
0.15087
0.18825
0.14834
0.18793
0.14891
0.18666
0.05552
0.15107
0.19531
0.05361
0.15377
0.19524
0.04968
0.14450
0.18449
0.04866
0.14416
0.18496
0.03181
0.01394
0.11124
0.13350
0.03164
0.01411
0.11160
0.13293
0.14092
0.16846
0.14091
0.16819
0.00691
0.08217
0.09678
0.00589
0.08327
0.09635
-0.03231
-0.00906
-0.03221
-0.00983
0.00460
0.00232
0.01092
0.00493
0.00297
0.01112
0.00237
0.02886
0.06320
0.00303
0.02971
0.06227
0.01098
0.01538
0.02683
0.00946
0.01643
0.02573
-0.01407
-0.01437
-0.01562
-0.01323
-0.01403
-0.01654
-0.00500
-0.00345
0.20865
0.15612
-0.00366
0.15736
0.20752
-0.00160
0.20839
0.15205
-0.00197
0.15364
0.20759
0.04253
0.21574
0.14965
0.04220
0.15117
0.21493
0.06110
0.18812
0.16134
0.06158
0.16135
0.18628
0.04565
0.17921
0.15128
0.04465
0.14987
0.17939
0.02080
0.15941
0.13025
0.02070
0.13131
0.15875
0.00335
0.12427
0.10175
0.00296
0.10159
0.12427
0.00468
0.08480
0.07323
0.00414
0.07359
0.08415
-0.02289
-0.01249
-0.02332
-0.01249
0.00294
0.00497
0.00094
0.00642
0.00096
0.00094
0.01496
0.02146
0.04983
0.02211
0.01449
0.04983
0.00096
-0.02332
-0.01654
0.01449
0.00642
0.02573
-0.00226
0.02211
0.08415
0.01013
0.07359
0.12427
0.03647
0.10159
0.15875
0.06695
0.13131
0.17939
0.04484
0.14987
0.18628
0.00257
0.16135
0.21493
-0.00108
0.15117
0.20759
-0.00132
0.15364
0.20752
-0.00132
0.15736
0.15612
-0.00108
0.15205
0.20865
0.00257
0.14965
0.20839
0.04484
0.16134
0.21574
0.06695
0.15128
0.18812
0.03647
0.13025
0.17921
0.01013
0.10175
0.15941
-0.00226
0.07323
0.12427
0.02146
0.08480
0.01496
0.00497
0.02683
0.00294
-0.02289
-0.01562
0.00414
0.01643
0.06227
0.00468
0.01538
0.06320
-0.01403
0.00946
0.01112
-0.01437
0.01098
0.01092
-0.01323
-0.00983
-0.01407
-0.00906
0.00296
0.02971
0.09635
0.00335
0.02886
0.09678
0.02070
0.08327
0.13293
0.02080
0.08217
0.13350
0.04465
0.16819
0.11160
0.04565
0.16846
0.11124
0.06158
0.14091
0.18496
0.06110
0.14092
0.18449
0.04220
0.14416
0.19524
0.04253
0.14450
0.19531
-0.00197
0.15377
0.18825
-0.00160
0.15107
0.18991
-0.00366
0.18666
0.15087
-0.00345
0.18793
0.14976
-0.00500
0.14891
0.14085
0.14834
0.14093
0.00297
-0.03221
0.00967
0.00232
-0.03231
0.01125
0.00303
0.00493
0.04750
0.00237
0.00460
0.04737
0.00589
0.02113
0.07213
0.00691
0.02098
0.07175
-0.00297
-0.01205
0.04075
-0.00209
-0.01222
0.04123
-0.02429
0.00016
-0.02541
0.00050
0.01411
0.03230
0.10857
0.01394
0.03221
0.10868
0.03164
0.04866
0.11507
0.17653
0.03181
0.04968
0.11434
0.17665
0.08584
0.14338
0.08568
0.14221
0.05361
0.14214
0.21472
0.05552
0.14173
0.21331
0.03456
0.23156
0.13785
0.03340
0.23268
0.13919
-0.00436
-0.00283
0.14261
0.12321
-0.00421
-0.00296
0.14196
0.12350
0.15435
0.15519
0.15469
0.15556
0.13174
0.13154
0.00242
0.00913
0.05953
0.00254
0.00775
0.05880
-0.01455
-0.03418
0.03138
-0.01541
-0.03378
0.03087
0.01329
0.02237
0.08534
0.01389
0.02229
0.08699
-0.00363
-0.01351
0.04929
-0.00323
-0.01301
0.04995
0.02424
0.03199
0.11692
0.02502
0.03107
0.11657
0.04119
0.08460
0.14857
0.04228
0.08347
0.14872
0.00169
0.04211
0.13660
0.13851
0.00183
0.04185
0.13678
0.13776
0.05516
0.11351
0.18617
0.05618
0.11272
0.18556
0.00051
0.13357
0.10533
0.00079
0.13353
0.10569
0.13846
0.23763
0.13877
0.23837
-0.03299
0.00658
-0.03385
0.00599
0.00072
0.12402
0.11209
0.12288
0.11235
0.00638
0.00678
0.07018
0.00737
0.00645
0.07047
-0.01404
-0.04077
0.03683
-0.01466
-0.04034
0.03741
0.02150
0.02162
0.09454
0.02261
0.02075
0.09413
-0.00250
-0.01591
0.05695
-0.00134
-0.01519
0.05754
0.03244
0.03095
0.12291
0.03286
0.03077
0.12284
0.04573
0.07211
0.15083
0.04638
0.07149
0.15178
0.02516
0.00125
0.13539
0.09365
0.02510
0.00165
0.13465
0.09402
0.05413
0.09585
0.18326
0.05487
0.09560
0.18358
0.16532
0.10885
0.16585
0.10788
0.00283
0.11730
0.09942
0.00308
0.11699
0.10021
0.10661
0.10672
-0.02529
0.00434
-0.02632
0.00529
0.01191
0.00506
0.07672
0.01299
0.00452
0.07623
-0.01212
-0.04731
0.04633
-0.01124
-0.04771
0.04846
0.02675
0.01519
0.10308
0.02779
0.01472
0.10188
0.00503
-0.01604
0.05889
0.00575
-0.01493
0.05898
0.03525
0.02439
0.12416
0.03617
0.02358
0.12407
0.04768
0.06096
0.14549
0.04872
0.06022
0.14530
0.04648
0.00139
0.10624
0.07036
0.04658
0.00165
0.10563
0.07051
0.08018
0.16077
0.08014
0.16158
0.00401
0.11364
0.08123
0.00405
0.11388
0.08182
0.00443
0.10019
0.08940
0.09996
0.08943
-0.01874
-0.01868
0.01731
-0.00524
0.08220
0.01849
-0.00547
0.08259
0.00157
0.04524
0.00192
0.04826
0.03049
0.00574
0.10040
0.03153
0.00523
0.10076
0.03551
0.01537
0.11877
0.03640
0.01508
0.11870
0.04201
0.04280
0.13876
0.04274
0.04282
0.13806
0.03182
0.05727
0.10986
0.03174
0.05742
0.10997
0.00979
-0.03508
0.06458
0.01117
-0.03599
0.06522
0.00518
0.10622
0.06447
0.00552
0.10602
0.06451
0.00511
0.09779
0.07411
0.00525
0.09760
0.07374
0.08364
0.08410
0.01968
-0.01741
0.08149
0.02019
-0.01706
0.08072
-0.00041
0.02009
-0.00257
0.01916
0.03431
-0.00181
0.09301
0.03497
-0.00149
0.09302
0.03796
0.00411
0.10747
0.03829
0.00347
0.10783
0.04210
0.03098
0.10986
0.04311
0.03119
0.11004
0.00746
-0.04506
0.05976
0.00714
-0.04501