# vtk DataFile Version 3.0
Point representing Sub_cellular elem model
ASCII

DATASET UNSTRUCTURED_GRID
POINTS 3657 float
-53.52344 -3.04529 52.89655 
-53.50030 3.25055 52.93250 
-53.13144 -9.29727 52.53572 
-53.12022 9.54776 52.60369 
-50.36381 0.05482 56.69906 
-50.05833 -6.12245 56.41609 
-50.08455 6.25341 56.40087 
-50.41403 -17.05731 53.09220 
-50.29635 17.19626 53.17565 
-49.77092 -12.18050 55.89555 
-49.64723 12.36649 56.02115 
-46.61589 -3.04241 59.66376 
-46.64157 3.12794 59.65597 
-46.34618 -9.20249 59.35830 
-46.33342 9.23036 59.38889 
-46.71710 -20.08686 56.34709 
-46.64149 20.21955 56.38196 
-46.08294 -15.06064 58.44386 
-46.00394 15.12127 58.53021 
-47.28814 -24.67798 53.06170 
-47.21065 24.99878 53.32098 
-47.30659 -29.50905 49.85720 
-47.15967 29.83154 50.03874 
-43.11292 -0.00513 62.46161 
-43.03919 -6.15298 62.43511 
-43.02749 6.16085 62.45807 
-42.59651 -12.04810 61.80097 
-42.56307 12.08553 61.88004 
-42.39556 -17.97206 60.94460 
-42.35074 17.98357 61.02500 
-42.94254 -22.98708 58.55389 
-42.87610 23.08702 58.67214 
-43.56683 -27.94074 56.04609 
-43.44727 28.14446 56.18160 
-42.84352 -33.50118 53.28565 
-42.60645 33.74728 53.32530 
-39.44762 -3.04212 64.88566 
-39.41661 3.07775 64.91006 
-39.15138 -9.00726 64.61639 
-39.12595 8.98211 64.61939 
-38.72359 -14.75207 64.01926 
-38.70624 14.76952 64.05954 
-38.49918 -20.56987 62.83836 
-38.47289 20.64712 62.89167 
-39.09648 -25.62768 60.75006 
-38.98897 25.74440 60.85892 
-38.62924 -31.24120 58.50235 
-38.51404 31.34737 58.64058 
-35.95365 0.01109 67.27102 
-35.72323 -5.88310 67.00094 
-35.65365 5.88480 67.04292 
-35.26026 -11.78095 66.82726 
-35.25945 11.79682 66.84683 
-37.85563 -36.73491 55.87466 
-37.71046 36.88388 56.13817 
-34.86732 -17.52231 65.90030 
-34.88851 17.51643 65.93160 
-34.69747 -23.19640 64.69191 
-34.64528 23.20837 64.77672 
-37.13278 -41.55469 51.86804 
-36.99205 41.86234 52.17805 
-34.27256 -28.71942 62.74721 
-34.14159 28.76526 62.88869 
-33.67437 -34.35768 60.62368 
-33.54154 34.39007 60.78478 
-31.46986 -3.12802 69.44175 
-31.43289 3.08058 69.46584 
-31.05077 -9.02235 69.17933 
-31.06152 9.04869 69.22387 
-30.46257 -14.77681 68.71651 
-30.44469 14.75759 68.75465 
-32.75606 -39.69735 57.48034 
-32.64706 39.78466 57.62645 
-30.20097 -20.55816 67.68006 
-30.18872 20.49365 67.73797 
-30.65746 -25.62460 65.91792 
-30.57902 25.58816 66.02726 
-30.05950 -31.19991 63.97677 
-29.96358 31.22223 64.08094 
-31.96952 -44.75558 54.01810 
-31.61568 44.95610 54.29145 
-29.37556 -36.69605 61.52126 
-29.22678 36.76101 61.60886 
-26.90489 -0.01085 71.52564 
-26.90054 -6.25258 71.51361 
-26.87607 6.23491 71.53254 
-26.17867 -12.20975 71.00082 
-26.11285 12.15478 71.01369 
-28.38392 -42.04800 58.49789 
-28.25434 42.09350 58.63053 
-25.85073 -17.93255 70.34661 
-25.81061 17.86587 70.40464 
-26.14894 -22.97330 68.80141 
-26.10325 22.95254 68.86776 
-26.54450 -28.07289 67.11994 
-26.48919 28.09390 67.18681 
-25.81249 -33.55299 64.86828 
-25.75738 33.58575 64.97265 
-27.24246 -47.20748 54.73811 
-27.02375 47.30692 54.79147 
-25.00608 -39.08070 62.41430 
-24.88551 39.13877 62.50152 
-26.28389 -51.36050 49.73522 
-25.98790 51.60929 49.88486 
-22.31881 -3.14796 73.26005 
-22.26031 3.13247 73.24308 
-22.01108 -9.32524 72.90364 
-22.00239 9.34715 72.91148 
-21.76265 -20.22957 71.20138 
-21.75594 20.22107 71.25999 
-21.46781 -15.09918 72.31107 
-21.39692 15.12043 72.35347 
-22.07711 -25.34966 69.67623 
-21.99920 25.35350 69.71054 
-22.29005 -30.34857 67.73164 
-22.23938 30.39545 67.77585 
-23.76062 -44.42818 59.03316 
-23.62059 44.52277 59.09074 
-21.50693 -35.81189 65.44237 
-21.38678 35.86902 65.50512 
-22.60951 -49.66300 54.96578 
-22.41074 49.75499 55.07042 
-20.34954 -41.32139 62.58302 
-20.21394 41.34002 62.68107 
-21.20586 -53.96212 50.05252 
-20.88283 54.11106 50.21325 
-17.72091 -0.01330 74.89374 
-17.53596 -6.22946 74.54972 
-17.55656 6.20509 74.54692 
-17.47531 -17.50033 73.13443 
-17.39849 17.48959 73.17608 
-17.71342 -22.64713 71.99708 
-17.67823 22.63853 72.03347 
-17.31903 -12.36881 74.12232 
-17.26401 12.33018 74.15100 
-17.84968 -27.64943 70.21252 
-17.83412 27.64831 70.25147 
-18.05521 -32.62174 68.24902 
-18.00091 32.66439 68.28609 
-19.03738 -46.65488 59.10888 
-18.94601 46.67622 59.18795 
-16.93041 -38.05503 65.64460 
-16.77435 38.07313 65.71708 
-17.67851 -51.61821 54.92525 
-17.48668 51.70318 54.99837 
-15.62947 -43.53088 62.80048 
-15.51106 43.57042 62.85228 
-13.17994 -3.17513 75.74118 
-13.14311 3.15126 75.78412 
-16.10863 -56.02700 50.07147 
-15.77116 56.18264 50.25648 
-13.23201 -19.81894 73.70851 
-13.21304 19.82124 73.72619 
-12.99569 -9.42249 75.36515 
-12.99378 9.35198 75.37168 
-13.35359 -24.90004 72.25484 
-13.29798 24.85956 72.29626 
-13.00253 -14.67834 74.71946 
-12.94958 14.62696 74.74734 
-13.41404 -29.92345 70.41860 
-13.38933 29.87689 70.47360 
-13.72583 -34.67906 68.18459 
-13.62972 34.65130 68.25303 
-14.18867 -48.63216 59.07444 
-14.11572 48.67340 59.11783 
-12.37665 -40.08581 65.53788 
-12.32372 40.10632 65.53252 
-12.83881 -53.59122 54.90568 
-12.58888 53.66760 54.95420 
-11.01700 -45.39389 62.31078 
-10.83333 45.44342 62.39496 
-8.75760 -0.00240 76.57430 
-8.69448 -11.67919 75.87877 
-8.67336 11.67390 75.86480 
-8.70224 -6.34835 76.51820 
-8.64826 6.33553 76.52922 
-8.80121 -16.86467 75.20346 
-8.76739 16.86097 75.21811 
-8.92901 -21.95260 73.88729 
-8.84457 21.96117 73.90829 
-9.04781 -31.84490 70.31731 
-8.97113 31.89774 70.35501 
-8.90742 -27.07914 72.41109 
-8.85621 27.07522 72.43306 
-9.22733 -36.67282 68.12945 
-9.17700 36.74733 68.12247 
-10.11583 -57.20082 51.16945 
-9.75323 57.22209 51.14636 
-9.50618 -50.49014 58.59735 
-9.40785 50.48731 58.66072 
-7.83688 -41.96450 65.10152 
-7.72493 42.00867 65.11452 
-6.31329 -47.21527 61.98860 
-6.10207 47.28188 61.98655 
-6.59777 -54.11832 55.60352 
-6.39849 54.11523 55.65702 
-4.30781 -3.17226 77.03878 
-4.26303 3.20172 77.04550 
-4.35843 -8.58012 76.65970 
-4.32258 8.57277 76.66324 
-4.36364 -13.90476 76.03046 
-4.33450 13.87874 76.06254 
-4.45174 -18.96505 75.13025 
-4.42117 18.98933 75.13040 
-4.45440 -23.98960 73.78792 
-4.36680 24.02844 73.78526 
-4.46137 -28.86633 72.06772 
-4.43564 28.82551 72.06584 
-4.56699 -33.64061 69.95577 
-4.52664 33.66113 69.96087 
-4.67590 -38.42117 67.52778 
-4.60397 38.46438 67.52156 
-3.55069 -57.58951 52.06000 
-3.25454 57.61056 52.03985 
-3.29149 -50.80013 59.20573 
-3.12772 50.83275 59.14742 
-3.10698 -43.65014 64.52567 
-2.96008 43.67520 64.52671 
-0.09637 -54.37288 56.20792 
-0.08421 -47.34715 62.03036 
-0.04948 -40.06980 66.91223 
-0.01417 -35.30499 69.32998 
0.00840 -30.55670 71.63793 
-0.05116 -25.65435 73.38007 
-0.01047 -20.88843 74.92837 
-0.00212 -15.87579 75.88859 
-0.00352 -10.74582 76.72314 
-0.03962 -5.34772 77.08920 
-0.00000 0.00000 77.37843 
0.03962 5.34772 77.08920 
0.00352 10.74582 76.72314 
0.00212 15.87579 75.88859 
0.01047 20.88843 74.92837 
0.05116 25.65435 73.38007 
-0.00840 30.55670 71.63793 
0.01417 35.30499 69.32998 
0.04948 40.06980 66.91223 
0.08421 47.34715 62.03036 
0.09637 54.37288 56.20792 
2.96008 -43.67520 64.52671 
3.10698 43.65014 64.52567 
3.12772 -50.83275 59.14742 
3.29149 50.80013 59.20573 
3.25454 -57.61056 52.03985 
3.55069 57.58951 52.06000 
4.60397 -38.46438 67.52156 
4.67590 38.42117 67.52778 
4.52664 -33.66113 69.96087 
4.56699 33.64061 69.95577 
4.43564 -28.82551 72.06584 
4.46137 28.86633 72.06772 
4.36680 -24.02844 73.78526 
4.45440 23.98960 73.78792 
4.42117 -18.98933 75.13040 
4.45174 18.96505 75.13025 
4.33450 -13.87874 76.06254 
4.36364 13.90476 76.03046 
4.32258 -8.57277 76.66324 
4.35843 8.58012 76.65970 
4.26303 -3.20172 77.04550 
4.30781 3.17226 77.03878 
6.39849 -54.11523 55.65702 
6.59777 54.11832 55.60352 
6.10207 -47.28188 61.98655 
6.31329 47.21527 61.98860 
7.72493 -42.00867 65.11452 
7.83688 41.96450 65.10152 
9.40785 -50.48731 58.66072 
9.50618 50.49014 58.59735 
9.75323 -57.22209 51.14636 
10.11583 57.20082 51.16945 
9.17700 -36.74733 68.12247 
9.22733 36.67282 68.12945 
8.85621 -27.07522 72.43306 
8.90742 27.07914 72.41109 
8.97113 -31.89774 70.35501 
9.04781 31.84490 70.31731 
8.84457 -21.96117 73.90829 
8.92901 21.95260 73.88729 
8.76739 -16.86097 75.21811 
8.80121 16.86467 75.20346 
8.64826 -6.33553 76.52922 
8.70224 6.34835 76.51820 
8.67336 -11.67390 75.86480 
8.69448 11.67919 75.87877 
8.75760 0.00240 76.57430 
10.83333 -45.44342 62.39496 
11.01700 45.39389 62.31078 
12.58888 -53.66760 54.95420 
12.83881 53.59122 54.90568 
12.32372 -40.10632 65.53252 
12.37665 40.08581 65.53788 
14.11572 -48.67340 59.11783 
14.18867 48.63216 59.07444 
13.62972 -34.65130 68.25303 
13.72583 34.67906 68.18459 
13.38933 -29.87689 70.47360 
13.41404 29.92345 70.41860 
12.94958 -14.62696 74.74734 
13.00253 14.67834 74.71946 
13.29798 -24.85956 72.29626 
13.35359 24.90004 72.25484 
12.99378 -9.35198 75.37168 
12.99569 9.42249 75.36515 
13.21304 -19.82124 73.72619 
13.23201 19.81894 73.70851 
15.77116 -56.18264 50.25648 
16.10863 56.02700 50.07147 
13.14311 -3.15126 75.78412 
13.17994 3.17513 75.74118 
15.51106 -43.57042 62.85228 
15.62947 43.53088 62.80048 
17.48668 -51.70318 54.99837 
17.67851 51.61821 54.92525 
16.77435 -38.07313 65.71708 
16.93041 38.05503 65.64460 
18.94601 -46.67622 59.18795 
19.03738 46.65488 59.10888 
18.00091 -32.66439 68.28609 
18.05521 32.62174 68.24902 
17.83412 -27.64831 70.25147 
17.84968 27.64943 70.21252 
17.26401 -12.33018 74.15100 
17.31903 12.36881 74.12232 
17.67823 -22.63853 72.03347 
17.71342 22.64713 71.99708 
17.39849 -17.48959 73.17608 
17.47531 17.50033 73.13443 
17.55656 -6.20509 74.54692 
17.53596 6.22946 74.54972 
17.72091 0.01330 74.89374 
20.88283 -54.11106 50.21325 
21.20586 53.96212 50.05252 
20.21394 -41.34002 62.68107 
20.34954 41.32139 62.58302 
22.41074 -49.75499 55.07042 
22.60951 49.66300 54.96578 
21.38678 -35.86902 65.50512 
21.50693 35.81189 65.44237 
23.62059 -44.52277 59.09074 
23.76062 44.42818 59.03316 
22.23938 -30.39545 67.77585 
22.29005 30.34857 67.73164 
21.99920 -25.35350 69.71054 
[...]
CELL_DATA 40900
SCALARS Strain double 1
LOOKUP_TABLE default
0.01214
0.00837
-0.05719
-0.04578
0.00885
-0.05713
-0.04799
-0.07195
-0.05624
-0.07031
-0.05408
0.01306
0.01313
0.00781
0.00805
0.01622
0.00752
0.00377
0.01788
0.00765
0.00414
-0.02218
-0.09284
-0.12712
-0.02403
-0.09461
-0.12690
-0.00292
-0.01489
-0.00372
-0.01766
0.00930
0.01114
0.06430
0.05908
0.00991
0.06470
0.06033
0.00787
0.06715
0.05131
0.00806
0.06683
0.05407
-0.01373
-0.05135
-0.09567
-0.03410
-0.01291
-0.04529
-0.09453
-0.03587
0.00496
-0.00374
0.00379
-0.00399
-0.05646
-0.12245
-0.07747
-0.05631
-0.12214
-0.08006
-0.14901
-0.10232
-0.14908
-0.10404
0.00472
0.00591
0.10229
0.10345
0.00608
0.10442
0.08926
0.00668
0.10449
0.08860
0.00890
0.10629
0.09603
0.00762
0.10279
0.09605
-0.02050
-0.03997
0.06356
-0.01941
-0.04019
0.06438
-0.02943
-0.06403
0.00563
-0.02777
-0.06464
0.00692
-0.03159
-0.09388
-0.03588
-0.03076
-0.09274
-0.03634
-0.12261
-0.06908
-0.12173
-0.07186
0.00082
0.00405
0.14240
0.13013
0.00260
0.14086
0.13123
0.01808
0.13989
0.12284
0.01860
0.14173
0.12422
0.01828
0.09270
0.13198
0.01872
0.09154
0.13191
-0.01045
-0.01439
0.08961
-0.00960
-0.01481
0.08951
-0.00659
-0.03754
0.04560
-0.00698
-0.03805
0.04560
-0.02174
-0.06296
-0.00319
-0.02072
-0.06167
-0.00278
-0.00080
-0.00138
0.16678
0.16881
0.00248
0.20485
0.15674
0.00307
0.20281
0.15685
0.02117
0.19562
0.23025
0.02055
0.19716
0.23157
-0.06103
-0.09696
-0.02716
-0.05745
-0.09647
-0.02724
0.02141
0.05850
0.18557
0.02237
0.05951
0.18605
0.00869
0.03483
0.14501
0.00963
0.03400
0.14537
-0.13331
-0.06574
-0.13309
-0.06371
-0.00393
-0.01306
0.08353
-0.00489
-0.01299
0.08405
-0.02733
-0.03641
0.03716
-0.02707
-0.03667
0.04030
-0.00201
-0.00271
0.20677
0.19896
-0.00049
0.20633
0.19812
0.03224
0.24625
0.16899
0.03213
0.24321
0.16850
0.04123
0.22291
0.28159
0.04063
0.22157
0.28323
-0.04823
-0.07514
-0.00939
-0.04350
-0.07320
-0.00884
0.01239
0.11417
0.23428
0.01231
0.11486
0.23398
0.01185
0.07287
0.15228
0.01250
0.07247
0.15219
-0.00733
0.00829
0.09617
-0.00663
0.00809
0.09463
-0.11320
-0.03229
-0.11514
-0.03622
-0.02134
-0.02123
0.03743
-0.02275
-0.02243
0.03661
-0.00147
-0.00144
0.22566
0.22537
-0.00123
0.23243
0.20158
-0.00229
0.23032
0.20017
0.02822
0.26230
0.37117
0.02809
0.26537
0.36770
-0.04864
-0.06500
0.00485
-0.04817
-0.06462
0.00791
0.03746
0.37247
0.20172
0.03766
0.36741
0.20521
0.01546
0.15905
0.25335
0.01557
0.15817
0.25513
0.01135
0.10508
0.17873
0.00955
0.10711
0.17878
-0.00607
0.03186
0.09700
-0.00563
0.03249
0.10041
-0.09213
-0.10730
-0.01935
-0.08905
-0.10826
-0.01984
-0.02360
-0.00531
0.04548
-0.02304
-0.00442
0.04641
-0.14784
-0.02467
-0.14895
-0.02655
-0.00044
-0.00020
0.26644
0.24922
0.00081
0.26617
0.24886
0.04198
0.27052
0.23954
0.04286
0.26813
0.24326
0.05460
0.03729
0.27141
0.37684
0.05212
0.03796
0.27300
0.37874
0.51243
0.30066
0.51549
0.29646
0.02116
0.20755
0.26888
0.02082
0.20606
0.26629
0.00922
0.13315
0.16117
0.00915
0.13257
0.16140
-0.04532
-0.05531
0.00210
-0.04597
-0.05321
0.00068
-0.00254
0.04246
0.08570
-0.00393
0.04122
0.08664
-0.08631
-0.10108
-0.01737
-0.08476
-0.10101
-0.01710
-0.01674
-0.00137
0.02057
-0.01749
-0.00059
0.02106
-0.14533
-0.02054
-0.14766
-0.01984
0.00153
0.00158
0.25532
0.25858
-0.00090
0.28368
0.24708
-0.00129
0.28852
0.24991
0.05426
0.04224
0.56568
0.33233
0.05404
0.04251
0.56076
0.32823
0.04303
0.32164
0.41795
0.04222
0.32087
0.42043
0.29729
0.30066
0.29290
0.30098
0.01753
0.24736
0.26498
0.01808
0.24798
0.26635
0.00853
0.15736
0.16102
0.00779
0.15645
0.16265
-0.04188
-0.05598
-0.01158
-0.04033
-0.05499
-0.01106
-0.00223
0.04632
0.06909
-0.00300
0.04588
0.06829
-0.08309
-0.10462
-0.03065
-0.08141
-0.10466
-0.02889
-0.01318
0.00236
0.00853
-0.01347
0.00291
0.00919
0.00141
0.00105
0.29244
0.28637
0.00005
0.29008
0.28505
-0.15072
-0.06138
-0.15301
-0.05994
0.06027
0.04319
0.35335
0.57634
0.05775
0.04492
0.35407
0.57899
-0.00016
0.36587
0.31431
-0.00004
0.36106
0.32063
0.03779
0.34076
0.40928
0.03732
0.34462
0.40673
0.32629
0.51498
0.32573
0.50909
0.01765
0.26281
0.25498
0.01697
0.25957
0.25809
0.00514
0.15566
0.13290
0.00565
0.15686
0.13098
-0.03549
-0.05138
-0.03120
-0.03338
-0.04967
-0.03160
-0.00117
0.03939
0.04118
-0.00095
0.03972
0.04193
-0.03832
-0.10625
-0.09371
-0.03661
-0.10538
-0.09504
-0.00198
-0.00816
-0.02620
-0.00327
-0.00795
-0.02509
-0.00025
0.00007
0.30464
0.30502
-0.00069
0.05299
0.31659
0.41924
0.00027
0.05114
0.31819
0.42350
0.30833
0.41427
0.31053
0.41183
0.08358
0.34224
0.50466
0.08323
0.34218
0.50276
0.05202
0.36852
0.55444
0.05193
0.36637
0.55124
0.03174
0.00732
0.23863
0.24211
0.03188
0.00718
0.23403
0.24236
0.32861
0.42547
0.33236
0.42785
0.00158
0.13433
0.11279
0.00012
0.13477
0.11329
-0.14428
-0.11559
-0.14362
-0.11694
-0.05944
0.00013
-0.09506
-0.05992
-0.00027
-0.09306
0.00291
0.03089
0.01671
0.00321
0.03065
0.01721
-0.01031
-0.01400
-0.06210
-0.01063
-0.01305
-0.06286
-0.01437
-0.08919
-0.13418
-0.01236
-0.09020
-0.13460
-0.00104
0.00247
0.45734
0.30888
0.00112
0.30567
0.46110
0.00007
0.46076
0.30733
-0.00086
0.31071
0.45723
0.05245
0.47702
0.31263
0.05510
0.31324
0.47510
0.07883
0.50583
0.28670
0.07932
0.28575
0.50695
0.04943
0.58663
0.36497
0.04726
0.35869
0.59325
0.01636
0.39190
0.29778
0.01711
0.30306
0.38835
0.00232
0.21528
0.20029
0.00255
0.19794
0.21565
0.00129
0.07980
0.10071
0.00114
0.10009
0.07996
-0.11184
-0.13742
-0.11035
-0.13742
-0.04094
-0.04141
-0.10835
-0.03987
-0.04345
-0.10835
-0.00673
0.00858
-0.00696
0.00873
-0.00794
-0.00696
-0.04345
-0.11035
-0.13460
-0.00794
-0.03987
-0.06286
-0.00524
0.00873
0.07996
0.00925
0.10009
0.21565
0.03285
0.19794
0.38835
0.07213
0.30306
0.59325
0.08609
0.35869
0.50695
0.07116
0.28575
0.47510
0.00104
0.31324
0.45723
-0.00085
0.31071
0.46110
-0.00085
0.30567
0.30888
0.00104
0.30733
0.45734
0.07116
0.31263
0.46076
0.08609
0.28670
0.47702
0.07213
0.36497
0.50583
0.03285
0.29778
0.58663
0.00925
0.20029
0.39190
-0.00524
0.10071
0.21528
0.00858
0.07980
-0.00673
-0.04141
-0.06210
-0.04094
-0.11184
-0.13418
0.00114
-0.01305
0.01721
0.00129
-0.01400
0.01671
-0.09020
-0.01063
-0.09306
-0.08919
-0.01031
-0.09506
-0.01236
-0.11694
-0.01437
-0.11559
0.00255
0.03065
0.11329
0.00232
0.03089
0.11279
0.01711
0.13477
0.24236
0.01636
0.13433
0.24211
0.04726
0.42785
0.23403
0.04943
0.42547
0.23863
0.07932
0.33236
0.55124
0.07883
0.32861
0.55444
0.05510
0.36637
0.50276
0.05245
0.36852
0.50466
-0.00086
0.34218
0.42350
0.00007
0.34224
0.41924
0.00112
0.41183
0.31819
0.00247
0.41427
0.31659
-0.00104
0.31053
0.30502
0.30833
0.30464
-0.00027
-0.14362
-0.09504
0.00013
-0.14428
-0.09371
0.00321
-0.05992
-0.02509
0.00291
-0.05944
-0.02620
0.00012
-0.00795
0.04193
0.00158
-0.00816
0.04118
-0.00327
-0.10538
-0.03160
-0.00198
-0.10625
-0.03120
-0.03661
-0.05994
-0.03832
-0.06138
0.00718
0.03972
0.13098
0.00732
0.03939
0.13290
0.03188
0.05193
0.25809
0.40673
0.03174
0.05202
0.25498
0.40928
0.15686
0.25957
0.15566
0.26281
0.08323
0.34462
0.57899
0.08358
0.34076
0.57634
0.05114
0.50909
0.35407
0.05299
0.51498
0.35335
0.00027
0.00007
0.32063
0.28505
-0.00069
-0.00025
0.31431
0.28637
0.32573
0.36106
0.32629
0.36587
0.29008
0.29244
-0.00095
-0.04967
0.00919
-0.00117
-0.05138
0.00853
-0.03338
-0.15301
-0.02889
-0.03549
-0.15072
-0.03065
0.00565
0.00291
0.06829
0.00514
0.00236
0.06909
-0.01347
-0.10466
-0.01106
-0.01318
-0.10462
-0.01158
0.01697
0.04588
0.16265
0.01765
0.04632
0.16102
0.03732
0.15645
0.26635
0.03779
0.15736
0.26498
-0.00004
0.04492
0.30098
0.32823
-0.00016
0.04319
0.30066
0.33233
0.05775
0.24798
0.42043
0.06027
0.24736
0.41795
0.00005
0.29290
0.24991
0.00105
0.29729
0.24708
0.32087
0.56076
0.32164
0.56568
-0.08141
-0.01984
-0.08309
-0.02054
0.00141
0.28852
0.25858
0.28368
0.25532
-0.00300
-0.05499
0.02106
-0.00223
-0.05598
0.02057
-0.04033
-0.14766
-0.01710
-0.04188
-0.14533
-0.01737
0.00779
-0.00059
0.08664
0.00853
-0.00137
0.08570
-0.01749
-0.10101
0.00068
-0.01674
-0.10108
0.00210
0.01808
0.04122
0.16140
0.01753
0.04246
0.16117
0.04222
0.13257
0.26629
0.04303
0.13315
0.26888
0.04251
-0.00129
0.29646
0.24326
0.04224
-0.00090
0.30066
0.23954
0.05404
0.20606
0.37874
0.05426
0.20755
0.37684
0.51549
0.27300
0.51243
0.27141
0.00158
0.26813
0.24886
0.00153
0.27052
0.24922
0.26617
0.26644
-0.08476
-0.02655
-0.08631
-0.02467
-0.00393
-0.05321
0.04641
-0.00254
-0.05531
0.04548
-0.04597
-0.14895
-0.01984
-0.04532
-0.14784
-0.01935
0.00915
-0.00442
0.10041
0.00922
-0.00531
0.09700
-0.02304
-0.10826
0.00791
-0.02360
-0.10730
0.00485
0.02082
0.03249
0.17878
0.02116
0.03186
0.17873
0.03796
0.10711
0.25513
0.03729
0.10508
0.25335
0.05212
0.04286
0.20521
0.36770
0.05460
0.04198
0.20172
0.37117
0.15817
0.36741
0.15905
0.37247
0.00081
0.26537
0.20017
-0.00020
0.26230
0.20158
-0.00044
0.23032
0.22537
0.23243
0.22566
-0.08905
-0.09213
-0.00563
-0.06462
0.03661
-0.00607
-0.06500
0.03743
-0.04817
-0.03622
-0.04864
-0.03229
0.00955
-0.02243
0.09463
0.01135
-0.02123
0.09617
0.01557
0.00809
0.15219
0.01546
0.00829
0.15228
0.03766
0.07247
0.23398
0.03746
0.07287
0.23428
0.02809
0.11486
0.28323
0.02822
0.11417
0.28159
-0.02275
-0.11514
-0.00884
-0.02134
-0.11320
-0.00939
-0.00229
0.22157
0.16850
-0.00123
0.22291
0.16899
-0.00144
0.24321
0.19812
-0.00147
0.24625
0.19896
0.20633
0.20677
-0.00663
-0.07320
0.04030
-0.00733
-0.07514
0.03716
-0.04350
-0.06371
-0.04823
-0.06574
0.01250
-0.03667
0.08405
0.01185
-0.03641
0.08353
0.01231
-0.01299
0.14537
0.01239
-0.01306
0.14501
0.04063
0.03400
0.18605
0.04123
0.03483
0.18557
-0.02707
-0.13309
-0.02724
-0.02733
-0.13331
-0.02716
0.03213
0.05951
0.23157
0.03224
0.05850
0.23025
-0.00049
0.19716
0.15685
-0.00271
0.19562
0.15674
-0.00201
0.20281
0.16881
0.20485
0.16678
-0.00489
-0.09647
-0.00278
-0.00393
-0.09696
-0.00319
0.00963
-0.06167
0.04560
0.00869
-0.06296
0.04560
-0.05745
-0.06103
0.02237
-0.03805
0.08951
0.02141
-0.03754
0.08961
0.02055
-0.01481
0.13191
0.02117
-0.01439
0.13198
-0.02072
-0.07186
-0.02174
-0.06908
0.00307
0.09154
0.12422
0.00248
0.09270
0.12284
-0.00138
0.14173
0.13123
-0.00080
0.13989
0.13013
0.14086
0.14240
-0.00698
-0.12173
-0.03634
-0.00659
-0.12261
-0.03588
-0.00960
-0.09274
0.00692
-0.01045
-0.09388
0.00563
0.01872
-0.06464
0.06438
0.01828
-0.06403
0.06356
0.01860
-0.04019
0.09605
0.01808
-0.03997
0.09603
0.00260
0.10279
0.08860
0.00405
0.10629
0.08926
0.00082
0.10449
0.10345
0.10442
0.10229
-0.03076
-0.10404
-0.03159
-0.10232
-0.02777
-0.14908
-0.08006
-0.02943
-0.14901
-0.07747
-0.01941
-0.12214
-0.03587
-0.02050
-0.12245
-0.03410
0.00762
-0.00399
-0.09453
0.00890
-0.00374
-0.09567
0.00668
0.00379
0.05407
0.00608
0.00496
0.05131
0.00591
0.06683
0.06033
0.00472
0.06715
0.05908
0.06470
0.06430
-0.05631
-0.05646
-0.04529
-0.05135
-0.01291
0.00806
-0.01766
-0.12690
-0.01373
0.00787
-0.01489
-0.12712
-0.09461
-0.09284
0.00991
-0.00372
0.00414
0.01114
-0.00292
0.00377
0.00930
0.00765
0.00805
0.00752
0.00781
-0.02403
0.01788
-0.05408
-0.02218
0.01622
-0.05624
0.01313
-0.07031
-0.04799
0.01306
-0.07195
-0.04578
-0.05713
-0.05719
0.00885
0.00837
0.01214
0.00988
0.00822
0.02358
0.02452
0.00843
0.02410
0.02444
0.01909
0.02149
0.01848
0.02051
0.01229
0.01259
0.06043
0.06042
0.01610
0.06521
0.05137
0.01614
0.06491
0.05145
0.00764
0.00394
0.00145
0.00779
0.00457
0.00212
0.07207
0.05352
0.07261
0.05387
0.01055
0.01166
0.09043
0.07840
0.01169
0.09023
0.07842
0.01246
0.09991
0.06972
0.01257
0.09918
0.06927
0.01688
-0.02516
-0.02777
0.06725
0.01748
-0.02342
-0.02727
0.06597
0.09680
0.10031
0.09566
0.09994
-0.03641
-0.06198
0.00857
-0.03715
-0.06070
0.01036
-0.08899
-0.02542
-0.08835
-0.02367
0.00726
0.00654
0.10144
0.10217
0.00736
0.11595
0.09434
0.00748
0.11501
0.09544
0.02360
0.12069
0.08118
0.02465
0.12013
0.08167
-0.00382
0.08949
0.15951
-0.00277
0.08856
0.15814
-0.01603
0.00636
0.11013
-0.01493
0.00674
0.11052
-0.01788
-0.02539
0.05364
-0.01783
-0.02496
0.05363
-0.05551
0.01750
-0.05543
0.01750
0.00333
0.00300
0.12220
0.11598
0.00301
0.12174
0.11689
0.00766
0.13258
0.09990
0.00753
0.13223
0.09955
0.02226
0.13493
0.20214
0.02244
0.13447
0.20218
0.00498
0.03453
0.21185
0.00560
0.03418
0.21201
0.00497
0.03953
0.14650
0.00544
0.03961
0.14724
-0.01345
0.01437
0.09612
-0.01280
0.01460
0.09665
0.00028
0.00054
0.15019
0.15124
0.00173
0.17479
0.13268
0.00121
0.17388
0.13294
0.03295
0.18417
0.11220
0.03322
0.18273
0.11318
-0.04308
-0.01905
0.05083
-0.04243
-0.01844
0.05006
0.03493
0.18934
0.29755
0.03521
0.18805
0.29777
0.02192
0.10122
0.23856
0.02187
0.10077
0.23875
-0.06332
0.00672
-0.06284
0.00633
0.00673
0.04927
0.17619
0.00719
0.04884
0.17673
-0.01303
0.02678
0.11491
-0.01268
0.02684
0.11468
-0.00168
-0.00116
0.17626
0.15921
-0.00155
0.17504
0.15909
0.00143
0.19863
0.14094
0.00126
0.19754
0.14116
0.03343
0.20670
0.32080
0.03280
0.20602
0.32175
-0.03370
-0.00314
0.06508
-0.03438
-0.00236
0.06683
0.02958
0.15957
0.35126
0.02959
0.15824
0.35239
0.02358
0.13397
0.26371
0.02377
0.13288
0.26446
0.00784
0.07441
0.18359
0.00787
0.07328
0.18435
-0.04583
0.02000
-0.04423
0.02155
-0.01029
0.04880
0.11558
-0.01006
0.04917
0.11736
-0.00149
-0.00169
0.19221
0.19252
-0.00283
0.20963
0.17438
-0.00249
0.20900
0.17494
0.04685
0.22438
0.15228
0.04667
0.22290
0.15312
-0.03329
0.01584
0.05818
-0.03223
0.01585
0.05791
0.04668
0.48252
0.25525
0.04592
0.48331
0.25522
0.03348
0.21091
0.37088
0.03373
0.21018
0.37064
0.02473
0.17417
0.26352
0.02496
0.17330
0.26369
0.00803
0.09376
0.17352
0.00780
0.09305
0.17377
-0.07377
-0.03276
0.02156
-0.07277
-0.03186
0.02191
-0.00649
0.06544
0.09707
-0.00699
0.06497
0.09731
-0.08085
0.00218
-0.07940
0.00199
-0.00077
-0.00241
0.22670
0.21510
-0.00232
0.22655
0.21556
-0.00261
0.24310
0.19782
-0.00273
0.24275
0.19775
0.04439
0.05606
0.27764
0.52807
0.04384
0.05555
0.27709
0.52659
0.45291
0.25791
0.45227
0.25696
0.03740
0.24770
0.37737
0.03722
0.24709
0.37777
0.02389
0.20265
0.25487
0.02340
0.20234
0.25596
-0.03132
0.02848
0.04584
-0.03028
0.02900
0.04644
0.00859
0.11014
0.14961
0.00829
0.10983
0.15092
-0.06657
-0.02314
0.01681
-0.06597
-0.02279
0.01624
-0.00451
0.07652
0.07383
-0.00487
0.07695
0.07476
-0.07701
0.00012
-0.07676
-0.00107
-0.00135
-0.00122
0.23866
0.23864
-0.00158
0.25977
0.22198
-0.00182
0.25907
0.22214
0.08035
0.05344
0.71637
0.30038
0.07973
0.05350
0.71839
0.29922
0.05857
0.32894
0.53711
0.05849
0.32802
0.53753
0.27525
0.27568
0.27400
0.27566
0.03875
0.29626
0.36424
0.03834
0.29495
0.36413
0.02144
0.23384
0.22684
0.02113
0.23398
0.22709
-0.02630
0.03406
0.02685
-0.02554
0.03402
0.02687
0.00708
0.10730
0.11638
0.00740
0.10737
0.11632
-0.06590
-0.02172
0.00875
-0.06614
-0.02179
0.00878
0.00084
0.07220
0.04166
0.00020
0.07248
0.04168
-0.00079
-0.00061
0.27677
0.26065
-0.00088
0.27682
0.26150
-0.07574
-0.00563
-0.07556
-0.00573
0.08571
0.06264
0.31490
0.66602
0.08543
0.06196
0.31243
0.66564
-0.00008
0.32899
0.29154
0.00010
0.32921
0.29076
0.05739
0.35112
0.52775
0.05661
0.35002
0.52731
0.30619
0.54833
0.30522
0.55046
0.03400
0.34304
0.30600
0.03359
0.34428
0.30416
0.01399
0.23093
0.19622
0.01432
0.22964
0.19698
-0.01949
0.02597
0.00605
-0.01954
0.02665
0.00640
0.00787
0.10111
0.08435
0.00774
0.09996
0.08495
-0.04255
-0.03210
-0.02531
-0.04248
-0.03210
-0.02484
0.00933
0.06111
0.01527
0.00854
0.06131
0.01624
-0.00071
-0.00107
0.28558
0.28656
-0.00069
0.08299
0.30293
0.40109
-0.00087
0.08388
0.30313
0.39838
0.29810
0.40774
0.29820
0.40741
0.11318
0.34042
0.47547
0.11216
0.34114
0.47489
0.08419
0.34226
0.60398
0.08373
0.34121
0.60653
0.04853
0.02366
0.29325
0.31600
0.04820
0.02393
0.29286
0.31562
0.36445
0.51432
0.36276
0.51535
0.00899
0.20734
0.16565
0.00899
0.20710
0.16552
-0.07387
-0.01418
-0.07376
-0.01348
0.00993
0.01158
-0.03891
0.01047
0.01191
-0.03836
0.01268
0.07641
0.06106
0.01226
0.07642
0.06111
0.01611
0.03588
-0.00557
0.01491
0.03631
-0.00538
-0.01902
-0.03463
-0.07732
-0.01874
-0.03483
-0.07661
-0.00083
-0.00093
0.45540
0.29758
-0.00103
0.29805
0.45390
0.00021
0.45899
0.29837
0.00034
0.29911
0.45695
0.08402
0.48107
0.29610
0.08315
0.29632
0.48033
0.11805
0.47195
0.36230
0.11827
0.36172
0.47162
0.07592
0.62798
0.37515
0.07585
0.37484
0.62782
0.03667
0.48312
0.34747
0.03659
0.34707
0.48392
0.01084
0.29190
0.24932
0.01061
0.24872
0.29281
0.01049
0.14692
0.15966
0.01037
0.15902
0.14727
-0.05038
-0.01355
-0.05113
-0.01355
-0.00199
0.00505
-0.05611
0.00594
-0.00207
-0.05611
0.01890
0.04509
0.06186
0.04517
0.01853
0.06186
-0.00207
-0.05113
-0.07661
0.01853
0.00594
-0.00538
0.00449
0.04517
0.14727
0.02246
0.15902
0.29281
0.06315
0.24872
0.48392
0.11206
0.34707
0.62782
0.07943
0.37484
0.47162
0.00070
0.36172
0.48033
-0.00040
0.29632
0.45695
-0.00054
0.29911
0.45390
-0.00054
0.29805
0.29758
-0.00040
0.29837
0.45540
0.00070
0.29610
0.45899
0.07943
0.36230
0.48107
0.11206
0.37515
0.47195
0.06315
0.34747
0.62798
0.02246
0.24932
0.48312
0.00449
0.15966
0.29190
0.04509
0.14692
0.01890
0.00505
-0.00557
-0.00199
-0.05038
-0.07732
0.01037
0.03631
0.06111
0.01049
0.03588
0.06106
-0.03483
0.01491
-0.03836
-0.03463
0.01611
-0.03891
-0.01874
-0.01348
-0.01902
-0.01418
0.01061
0.07642
0.16552
0.01084
0.07641
0.16565
0.03659
0.20710
0.31562
0.03667
0.20734
0.31600
0.07585
0.51535
0.29286
0.07592
0.51432
0.29325
0.11827
0.36276
0.60653
0.11805
0.36445
0.60398
0.08315
0.34121
0.47489
0.08402
0.34226
0.47547
0.00034
0.34114
0.39838
0.00021
0.34042
0.40109
-0.00103
0.40741
0.30313
-0.00093
0.40774
0.30293
-0.00083
0.29820
0.28656
0.29810
0.28558
0.01191
-0.07376
-0.02484
0.01158
-0.07387
-0.02531
0.01226
0.01047
0.01624
0.01268
0.00993
0.01527
0.00899
0.06131
0.08495
0.00899
0.06111
0.08435
0.00854
-0.03210
0.00640
0.00933
-0.03210
0.00605
-0.04248
-0.00573
-0.04255
-0.00563
0.02393
0.09996
0.19698
0.02366
0.10111
0.19622
0.04820
0.08373
0.30416
0.52731
0.04853
0.08419
0.30600
0.52775
0.22964
0.34428
0.23093
0.34304
0.11216
0.35002
0.66564
0.11318
0.35112
0.66602
0.08388
0.55046
0.31243
0.08299
0.54833
0.31490
-0.00087
-0.00107
0.29076
0.26150
-0.00069
-0.00071
0.29154
0.26065
0.30522
0.32921
0.30619
0.32899
0.27682
0.27677
0.00774
0.02665
0.04168
0.00787
0.02597
0.04166
-0.01954
-0.07556
0.00878
-0.01949
-0.07574
0.00875
0.01432
0.07248
0.11632
0.01399
0.07220
0.11638
0.00020
-0.02179
0.02687
0.00084
-0.02172
0.02685
0.03359
0.10737
0.22709
0.03400
0.10730
0.22684
0.05661
0.23398
0.36413
0.05739
0.23384
0.36424
0.00010
0.06196
0.27566
0.29922
-0.00008
0.06264
0.27568
0.30038
0.08543
0.29495
0.53753
0.08571
0.29626
0.53711
-0.00088
0.27400
0.22214
-0.00061
0.27525
0.22198
0.32802
0.71839
0.32894
0.71637
-0.06614
-0.00107
-0.06590
0.00012
-0.00079
0.25907
0.23864
0.25977
0.23866
0.00740
0.03402
0.07476
0.00708
0.03406
0.07383
-0.02554
-0.07676
0.01624
-0.02630
-0.07701
0.01681
0.02113
0.07695
0.15092
0.02144
0.07652
0.14961
-0.00487
-0.02279
0.04644
-0.00451
-0.02314
0.04584
0.03834
0.10983
0.25596
0.03875
0.11014
0.25487
0.05849
0.20234
0.37777
0.05857
0.20265
0.37737
0.05350
-0.00182
0.25696
0.19775
0.05344
-0.00158
0.25791
0.19782
0.07973
0.24709
0.52659
0.08035
0.24770
0.52807
0.45227
0.27709
0.45291
0.27764
-0.00122
0.24275
0.21556
-0.00135
0.24310
0.21510
0.22655
0.22670
-0.06597
0.00199
-0.06657
0.00218
0.00829
0.02900
0.09731
0.00859
0.02848
0.09707
-0.03028
-0.07940
0.02191
-0.03132
-0.08085
0.02156
0.02340
0.06497
0.17377
0.02389
0.06544
0.17352
-0.00699
-0.03186
0.05791
-0.00649
-0.03276
0.05818
0.03722
0.09305
0.26369
0.03740
0.09376
0.26352
0.05555
0.17330
0.37064
0.05606
0.17417
0.37088
0.04384
-0.00273
0.25522
0.15312
0.04439
-0.00261
0.25525
0.15228
0.21018
0.48331
0.21091
0.48252
-0.00232
0.22290
0.17494
-0.00241
0.22438
0.17438
-0.00077
0.20900
0.19252
0.20963
0.19221
-0.07277
-0.07377
0.00780
0.01585
0.11736
0.00803
0.01584
0.11558
-0.03223
0.02155
-0.03329
0.02000
0.02496
0.04917
0.18435
0.02473
0.04880
0.18359
0.03373
0.07328
0.26446
0.03348
0.07441
0.26371
0.04592
0.13288
0.35239
0.04668
0.13397
0.35126
0.04667
0.15824
0.32175
0.04685
0.15957
0.32080
-0.01006
-0.04423
0.06683
-0.01029
-0.04583
0.06508
-0.00249
0.20602
0.14116
-0.00283
0.20670
0.14094
-0.00169
0.19754
0.15909
-0.00149
0.19863
0.15921
0.17504
0.17626
0.00787
-0.00236
0.11468
0.00784
-0.00314
0.11491
-0.03438
0.00633
-0.03370
0.00672
0.02377
0.02684
0.17673