# vtk DataFile Version 3.0
Point representing Sub_cellular elem model
ASCII

DATASET UNSTRUCTURED_GRID
POINTS 3657 float
-52.59250 -3.02343 53.38570 
-52.56522 3.26553 53.42592 
-52.19815 -9.27172 53.00773 
-52.18533 9.56471 53.09086 
-49.37895 0.06550 57.27415 
-49.05423 -6.09138 56.96582 
-49.08245 6.24689 56.94984 
-49.56450 -16.86409 53.38786 
-49.42871 17.02808 53.48385 
-48.81402 -12.11796 56.45042 
-48.67062 12.33503 56.59362 
-45.55840 -3.01974 60.17826 
-45.58782 3.12125 60.17089 
-45.30581 -9.15684 59.88367 
-45.28834 9.19267 59.91935 
-45.87707 -19.93199 56.77424 
-45.78431 20.08796 56.81411 
-45.09517 -14.97264 58.95200 
-45.00102 15.04574 59.05025 
-46.59201 -24.33829 53.20256 
-46.50962 24.73544 53.51709 
-46.70904 -29.10572 49.78821 
-46.54198 29.49975 50.00965 
-42.04768 -0.00368 62.91143 
-41.99039 -6.12438 62.91275 
-41.97491 6.13596 62.93927 
-41.53552 -11.98499 62.27878 
-41.49390 12.02895 62.36926 
-41.43034 -17.89073 61.44816 
-41.37465 17.90405 61.54217 
-42.12047 -22.83265 58.93098 
-42.03968 22.95464 59.07425 
-42.95794 -27.71377 56.33136 
-42.81113 27.96433 56.49818 
-42.36434 -33.24839 53.42314 
-42.07572 33.54957 53.47564 
-38.39073 -3.02293 65.26604 
-38.35422 3.06529 65.29372 
-38.08739 -8.96659 65.01823 
-38.05469 8.93987 65.02272 
-37.67717 -14.65511 64.45287 
-37.65401 14.67661 64.50039 
-37.56675 -20.44773 63.26424 
-37.53194 20.53827 63.32984 
-38.33089 -25.45413 61.14285 
-38.20009 25.59414 61.27404 
-38.03107 -31.03660 58.81991 
-37.88749 31.16810 58.98879 
-34.95061 0.01317 67.59503 
-34.69908 -5.85181 67.31449 
-34.61779 5.85478 67.36151 
-34.22166 -11.72426 67.20066 
-34.21720 11.74200 67.22459 
-37.41604 -36.51396 56.12279 
-37.23997 36.69793 56.44051 
-33.88079 -17.42145 66.28247 
-33.89998 17.41421 66.32142 
-33.84547 -23.05782 65.09672 
-33.77885 23.07301 65.19855 
-36.87602 -41.18701 51.80789 
-36.71396 41.57025 52.19217 
-33.57039 -28.53451 63.10755 
-33.41029 28.59262 63.27612 
-33.13367 -34.17575 60.97910 
-32.96824 34.21889 61.17272 
-30.52205 -3.11732 69.66401 
-30.47881 3.06415 69.69112 
-30.07546 -8.98220 69.42082 
-30.08535 9.01181 69.47257 
-29.48394 -14.68155 69.00610 
-29.45962 14.65891 69.05117 
-32.36820 -39.49841 57.69216 
-32.23039 39.60543 57.87286 
-29.31986 -20.43253 67.99044 
-29.29954 20.35871 68.05969 
-29.88991 -25.45180 66.23980 
-29.79193 25.41290 66.36915 
-29.42617 -31.00570 64.28966 
-29.30511 31.03492 64.41493 
-31.80642 -44.52400 54.08854 
-31.38645 44.77724 54.41877 
-28.90489 -36.48994 61.79976 
-28.72229 36.57053 61.90752 
-26.03183 -0.01242 71.66187 
-26.04498 -6.23493 71.67888 
-26.01497 6.21452 71.70127 
-25.27571 -12.17180 71.17929 
-25.19659 12.10911 71.19469 
-28.07024 -41.85325 58.70039 
-27.90813 41.91316 58.86124 
-25.00545 -17.84377 70.57590 
-24.95441 17.76587 70.64400 
-25.37200 -22.82657 69.04369 
-25.31294 22.80251 69.12297 
-25.87032 -27.89528 67.40996 
-25.79867 27.91978 67.49151 
-25.27480 -33.34841 65.12913 
-25.19924 33.39024 65.25567 
-27.11467 -46.99450 54.78798 
-26.84597 47.11715 54.85258 
-24.62071 -38.89426 62.67998 
-24.46949 38.96639 62.78602 
-26.36563 -50.96482 49.43663 
-26.01450 51.28185 49.61862 
-21.56572 -3.14135 73.33037 
-21.49744 3.12244 73.31120 
-21.23361 -9.30074 72.99072 
-21.22073 9.32423 73.00143 
-21.04470 -20.11274 71.35725 
-21.02939 20.10166 71.42692 
-20.69961 -15.02883 72.42754 
-20.61399 15.05040 72.47739 
-21.42671 -25.19272 69.86811 
-21.33237 25.19661 69.91047 
-21.72179 -30.15816 67.94747 
-21.65576 30.21291 68.00255 
-23.52452 -44.25125 59.19668 
-23.35104 44.36456 59.26873 
-21.07470 -35.61109 65.65632 
-20.92612 35.68006 65.73209 
-22.57154 -49.51100 54.95797 
-22.32610 49.62722 55.08731 
-20.06255 -41.13740 62.75546 
-19.89334 41.16515 62.87277 
-21.33611 -53.70828 49.73505 
-20.94673 53.90051 49.92807 
-17.10503 -0.01542 74.91557 
-16.90143 -6.21833 74.56014 
-16.92153 6.18968 74.55791 
-16.85805 -17.42765 73.20355 
-16.76582 17.41419 73.25247 
-17.13588 -22.53669 72.11673 
-17.08897 22.52606 72.16107 
-16.69006 -12.34321 74.17001 
-16.62248 12.29730 74.20357 
-17.32354 -27.49508 70.35265 
-17.29782 27.49408 70.40084 
-17.60839 -32.44550 68.43130 
-17.53773 32.49509 68.47801 
-18.89828 -46.50202 59.20046 
-18.77882 46.53168 59.29734 
-16.61767 -37.87057 65.79980 
-16.42753 37.89597 65.88598 
-17.69559 -51.47674 54.85839 
-17.45657 51.58192 54.94944 
-15.44436 -43.38931 62.95800 
-15.29418 43.43899 63.02085 
-12.68900 -3.17439 75.69717 
-12.64746 3.14697 75.74524 
-16.27232 -55.85240 49.74265 
-15.86989 56.05356 49.96731 
-12.77255 -19.75579 73.74157 
-12.74274 19.75730 73.76404 
-12.50205 -9.41626 75.33508 
-12.49477 9.33525 75.34303 
-12.92753 -24.78532 72.32119 
-12.85716 24.74022 72.36953 
-12.51497 -14.66419 74.71665 
-12.44844 14.60547 74.74921 
-13.03033 -29.77656 70.51252 
-12.99331 29.72476 70.57746 
-13.41115 -34.50583 68.29485 
-13.29146 34.47772 68.37523 
-14.13465 -48.51552 59.13699 
-14.03667 48.56629 59.19167 
-12.16876 -39.92492 65.64725 
-12.09633 39.95068 65.64348 
-12.94674 -53.52837 54.85421 
-12.64077 53.62384 54.91407 
-10.93776 -45.26104 62.38924 
-10.71042 45.32409 62.49119 
-8.42351 -0.00302 76.49200 
-8.35933 -11.68367 75.82020 
-8.32894 11.67504 75.80624 
-8.37135 -6.35131 76.45847 
-8.30747 6.33520 76.47129 
-8.48571 -16.84750 75.18519 
-8.44012 16.84231 75.20315 
-8.63542 -21.87630 73.89129 
-8.53454 21.88567 73.91610 
-8.80040 -31.69757 70.37230 
-8.70588 31.75732 70.41725 
-8.62943 -26.96824 72.45625 
-8.56350 26.96310 72.48289 
-9.02716 -36.52651 68.22401 
-8.96004 36.61205 68.21920 
-10.28915 -57.12784 50.95831 
-9.84972 57.15512 50.93239 
-9.54553 -50.41039 58.62990 
-9.41720 50.41174 58.70778 
-7.74791 -41.82808 65.17138 
-7.60731 41.88164 65.18896 
-6.32458 -47.13031 62.09875 
-6.06467 47.21058 62.09832 
-6.68648 -54.05816 55.58724 
-6.43938 54.06023 55.65220 
-4.13454 -3.17327 76.94098 
-4.08205 3.20497 76.94857 
-4.19135 -8.59180 76.56610 
-4.14630 8.58234 76.57050 
-4.19781 -13.91539 75.95805 
-4.15883 13.88594 75.99402 
-4.30213 -18.94079 75.09257 
-4.25976 18.96717 75.09394 
-4.30978 -23.90174 73.78227 
-4.20430 23.94460 73.78059 
-4.32659 -28.74737 72.08497 
-4.28900 28.70143 72.08416 
-4.45327 -33.49856 69.98964 
-4.39905 33.52254 69.99667 
-4.59077 -38.28768 67.57748 
-4.49807 38.33801 67.57160 
-3.64532 -57.53890 51.98607 
-3.28319 57.56384 51.96641 
-3.32895 -50.72141 59.29215 
-3.12340 50.75931 59.22317 
-3.10158 -43.54095 64.59542 
-2.91968 43.57032 64.59781 
-0.12040 -54.34294 56.29387 
-0.10499 -47.25651 62.10787 
-0.06279 -39.96342 66.97676 
-0.02061 -35.17599 69.35934 
0.00478 -30.43694 71.66301 
-0.06016 -25.54894 73.37384 
-0.01670 -20.84051 74.90393 
-0.00638 -15.86408 75.82295 
-0.00665 -10.76077 76.64001 
-0.04594 -5.35020 76.98487 
0.00000 0.00000 77.28655 
0.04594 5.35020 76.98487 
0.00665 10.76077 76.64001 
0.00638 15.86408 75.82295 
0.01670 20.84051 74.90393 
0.06016 25.54894 73.37384 
-0.00478 30.43694 71.66301 
0.02061 35.17599 69.35934 
0.06279 39.96342 66.97676 
0.10499 47.25651 62.10787 
0.12040 54.34294 56.29387 
2.91968 -43.57032 64.59781 
3.10158 43.54095 64.59542 
3.12340 -50.75931 59.22317 
3.32895 50.72141 59.29215 
3.28319 -57.56384 51.96641 
3.64532 57.53890 51.98607 
4.49807 -38.33801 67.57160 
4.59077 38.28768 67.57748 
4.39905 -33.52254 69.99667 
4.45327 33.49856 69.98964 
4.28900 -28.70143 72.08416 
4.32659 28.74737 72.08497 
4.20430 -23.94460 73.78059 
4.30978 23.90174 73.78227 
4.25976 -18.96717 75.09394 
4.30213 18.94079 75.09257 
4.15883 -13.88594 75.99402 
4.19781 13.91539 75.95805 
4.14630 -8.58234 76.57050 
4.19135 8.59180 76.56610 
4.08205 -3.20497 76.94857 
4.13454 3.17327 76.94098 
6.43938 -54.06023 55.65220 
6.68648 54.05816 55.58724 
6.06467 -47.21058 62.09832 
6.32458 47.13031 62.09875 
7.60731 -41.88164 65.18896 
7.74791 41.82808 65.17138 
9.41720 -50.41174 58.70778 
9.54553 50.41039 58.62990 
9.84972 -57.15512 50.93239 
10.28915 57.12784 50.95831 
8.96004 -36.61205 68.21920 
9.02716 36.52651 68.22401 
8.56350 -26.96310 72.48289 
8.62943 26.96824 72.45625 
8.70588 -31.75732 70.41725 
8.80040 31.69757 70.37230 
8.53454 -21.88567 73.91610 
8.63542 21.87630 73.89129 
8.44012 -16.84231 75.20315 
8.48571 16.84750 75.18519 
8.30747 -6.33520 76.47129 
8.37135 6.35131 76.45847 
8.32894 -11.67504 75.80624 
8.35933 11.68367 75.82020 
8.42351 0.00302 76.49200 
10.71042 -45.32409 62.49119 
10.93776 45.26104 62.38924 
12.64077 -53.62384 54.91407 
12.94674 53.52837 54.85421 
12.09633 -39.95068 65.64348 
12.16876 39.92492 65.64725 
14.03667 -48.56629 59.19167 
14.13465 48.51552 59.13699 
13.29146 -34.47772 68.37523 
13.41115 34.50583 68.29485 
12.99331 -29.72476 70.57746 
13.03033 29.77656 70.51252 
12.44844 -14.60547 74.74921 
12.51497 14.66419 74.71665 
12.85716 -24.74022 72.36953 
12.92753 24.78532 72.32119 
12.49477 -9.33525 75.34303 
12.50205 9.41626 75.33508 
12.74274 -19.75730 73.76404 
12.77255 19.75579 73.74157 
15.86989 -56.05356 49.96731 
16.27232 55.85240 49.74265 
12.64746 -3.14697 75.74524 
12.68900 3.17439 75.69717 
15.29418 -43.43899 63.02085 
15.44436 43.38931 62.95800 
17.45657 -51.58192 54.94944 
17.69559 51.47674 54.85839 
16.42753 -37.89597 65.88598 
16.61767 37.87057 65.79980 
18.77882 -46.53168 59.29734 
18.89828 46.50202 59.20046 
17.53773 -32.49509 68.47801 
17.60839 32.44550 68.43130 
17.29782 -27.49408 70.40084 
17.32354 27.49508 70.35265 
16.62248 -12.29730 74.20357 
16.69006 12.34321 74.17001 
17.08897 -22.52606 72.16107 
17.13588 22.53669 72.11673 
16.76582 -17.41419 73.25247 
16.85805 17.42765 73.20355 
16.92153 -6.18968 74.55791 
16.90143 6.21833 74.56014 
17.10503 0.01542 74.91557 
20.94673 -53.90051 49.92807 
21.33611 53.70828 49.73505 
19.89334 -41.16515 62.87277 
20.06255 41.13740 62.75546 
22.32610 -49.62722 55.08731 
22.57154 49.51100 54.95797 
20.92612 -35.68006 65.73209 
21.07470 35.61109 65.65632 
23.35104 -44.36456 59.26873 
23.52452 44.25125 59.19668 
21.65576 -30.21291 68.00255 
21.72179 30.15816 67.94747 
21.33237 -25.19661 69.91047 
[...]
CELL_DATA 40900
SCALARS Strain double 1
LOOKUP_TABLE default
0.01104
0.00747
-0.06572
-0.05286
0.00884
-0.06491
-0.05711
-0.08083
-0.07145
-0.07884
-0.06820
0.01003
0.01061
0.01244
0.01177
0.01037
0.01157
0.00553
0.01313
0.01241
0.00579
-0.03383
-0.11412
-0.14147
-0.03598
-0.11647
-0.14131
0.00070
-0.02857
-0.00093
-0.03433
0.00450
0.00724
0.07949
0.07548
0.00467
0.08141
0.07721
0.00070
0.08613
0.06362
0.00156
0.08576
0.06771
-0.02879
-0.07245
-0.11029
-0.05587
-0.02592
-0.06363
-0.10862
-0.05765
0.01127
-0.01479
0.00966
-0.01691
-0.07202
-0.13670
-0.09340
-0.07151
-0.13686
-0.09871
-0.16805
-0.12106
-0.16810
-0.12409
0.00025
0.00160
0.12847
0.13142
0.00110
0.13064
0.11359
0.00199
0.13070
0.11255
0.00607
0.13789
0.11959
0.00395
0.13209
0.11873
-0.03219
-0.04538
0.06488
-0.02867
-0.04671
0.06673
-0.04433
-0.07012
-0.00964
-0.03971
-0.07159
-0.00668
-0.04279
-0.10213
-0.04865
-0.03982
-0.10097
-0.05089
-0.13862
-0.09041
-0.13724
-0.09500
-0.00435
0.00042
0.18137
0.16485
-0.00243
0.17802
0.16728
0.01282
0.17581
0.16351
0.01417
0.17956
0.16541
0.01735
0.11958
0.16251
0.01929
0.11761
0.16069
-0.02045
-0.01646
0.09539
-0.01898
-0.01697
0.09532
-0.01615
-0.03884
0.04490
-0.01655
-0.03987
0.04477
-0.03429
-0.06945
-0.01274
-0.03268
-0.06768
-0.01309
-0.00540
-0.00644
0.20962
0.21337
-0.00184
0.26117
0.20275
-0.00132
0.25731
0.20184
0.01917
0.24399
0.31065
0.01775
0.24634
0.31288
-0.07968
-0.11236
-0.04669
-0.07366
-0.11184
-0.04843
0.01733
0.07217
0.23074
0.01896
0.07414
0.23197
0.00181
0.04794
0.17083
0.00388
0.04632
0.17188
-0.14871
-0.08221
-0.14972
-0.07916
-0.00990
-0.01025
0.09129
-0.01127
-0.01065
0.09075
-0.03443
-0.03796
0.02955
-0.03316
-0.03921
0.03438
-0.00636
-0.00746
0.26654
0.25928
-0.00381
0.26381
0.25814
0.03335
0.31772
0.22216
0.03242
0.31313
0.22188
0.04645
0.28567
0.37653
0.04456
0.28463
0.37914
-0.06451
-0.08560
-0.02873
-0.05682
-0.08366
-0.02818
0.00861
0.14377
0.29748
0.00884
0.14521
0.29919
0.00824
0.09623
0.17938
0.01051
0.09443
0.17931
-0.01327
0.01519
0.10238
-0.01113
0.01363
0.09939
-0.12805
-0.04920
-0.13242
-0.05822
-0.02719
-0.02112
0.02866
-0.02915
-0.02377
0.02685
-0.00454
-0.00441
0.28981
0.29064
-0.00375
0.29628
0.26072
-0.00539
0.29297
0.25866
0.02603
0.33084
0.52015
0.02477
0.33228
0.51669
-0.06153
-0.07497
-0.01084
-0.05859
-0.07536
-0.00663
0.03956
0.51005
0.25781
0.04091
0.50158
0.26283
0.01320
0.20514
0.31820
0.01436
0.20263
0.32263
0.00955
0.13678
0.21539
0.00807
0.13913
0.21586
-0.00873
0.04420
0.10122
-0.00730
0.04384
0.10798
-0.11293
-0.12551
-0.03676
-0.10864
-0.12734
-0.03801
-0.02676
-0.00226
0.03817
-0.02524
-0.00156
0.03936
-0.16718
-0.02811
-0.16906
-0.03145
-0.00307
-0.00303
0.35014
0.32524
-0.00130
0.34809
0.32312
0.05039
0.34724
0.30822
0.05158
0.34222
0.31540
0.06244
0.04086
0.35438
0.50787
0.05869
0.04249
0.35848
0.51262
0.74693
0.38825
0.75302
0.38081
0.02172
0.27185
0.34303
0.02247
0.26851
0.33696
0.00796
0.17221
0.18542
0.00851
0.17048
0.18604
-0.05053
-0.06633
-0.01635
-0.05103
-0.06297
-0.01995
-0.00207
0.05594
0.08567
-0.00418
0.05301
0.08765
-0.10305
-0.11739
-0.03375
-0.10016
-0.11806
-0.03340
-0.01658
-0.00008
0.00444
-0.01740
0.00076
0.00513
-0.16659
-0.02605
-0.17041
-0.02548
-0.00039
-0.00035
0.32940
0.33666
-0.00367
0.36748
0.31888
-0.00446
0.37722
0.32398
0.06211
0.04808
0.82994
0.44060
0.06197
0.04901
0.81689
0.43268
0.04940
0.42582
0.57541
0.04882
0.42370
0.58119
0.38233
0.38665
0.37273
0.38743
0.01849
0.32534
0.33348
0.01996
0.32714
0.33597
0.00934
0.20342
0.18465
0.00864
0.20174
0.18816
-0.04713
-0.06634
-0.03315
-0.04378
-0.06565
-0.03265
-0.00004
0.05915
0.06466
-0.00020
0.05786
0.06151
-0.09724
-0.12409
-0.05196
-0.09461
-0.12540
-0.04869
-0.01023
0.00490
-0.01168
-0.01074
0.00454
-0.00911
0.00064
0.00006
0.37953
0.37473
-0.00204
0.37317
0.37376
-0.17388
-0.07573
-0.17807
-0.07455
0.06955
0.04636
0.47301
0.84512
0.06586
0.04949
0.47371
0.85566
-0.00198
0.48547
0.41042
-0.00142
0.47929
0.42156
0.04348
0.45409
0.55969
0.04258
0.46035
0.55567
0.42355
0.71516
0.41962
0.70400
0.02092
0.32871
0.33763
0.02030
0.32694
0.34171
0.00602
0.19999
0.14798
0.00819
0.19952
0.14529
-0.03670
-0.06398
-0.05853
-0.03260
-0.06077
-0.05884
0.00200
0.04920
0.02609
0.00262
0.04839
0.02883
-0.04371
-0.12665
-0.12066
-0.03981
-0.12589
-0.12334
0.00459
-0.01098
-0.05494
0.00201
-0.01242
-0.05223
0.00010
0.00015
0.39696
0.40092
-0.00027
0.06557
0.40932
0.55785
0.00079
0.06360
0.41216
0.56643
0.39932
0.55477
0.40127
0.55037
0.10244
0.45071
0.71152
0.10242
0.44990
0.70869
0.06023
0.49628
0.82167
0.05968
0.48946
0.81700
0.03816
0.00978
0.31186
0.29886
0.03902
0.01094
0.30363
0.29825
0.43900
0.58879
0.44554
0.59196
0.00346
0.16703
0.12246
0.00183
0.16733
0.12397
-0.16779
-0.13748
-0.16743
-0.14008
-0.07088
0.00225
-0.12701
-0.07213
0.00369
-0.12332
0.00691
0.03752
-0.00071
0.00838
0.03629
0.00079
-0.01366
-0.01749
-0.08774
-0.01429
-0.01641
-0.08946
-0.01435
-0.10464
-0.16576
-0.00966
-0.10782
-0.16627
-0.00036
0.00445
0.61583
0.39508
0.00231
0.38705
0.62581
-0.00051
0.63047
0.39362
-0.00173
0.40012
0.62297
0.06275
0.65372
0.40486
0.06707
0.40402
0.64989
0.09200
0.71945
0.36980
0.09301
0.36721
0.72236
0.05903
0.87642
0.49798
0.05543
0.48503
0.89130
0.02004
0.53107
0.39278
0.02194
0.40325
0.52314
0.00598
0.26383
0.25476
0.00683
0.24981
0.26399
0.00245
0.08237
0.11920
0.00225
0.11758
0.08338
-0.12955
-0.16160
-0.12856
-0.16160
-0.04881
-0.05324
-0.13995
-0.05020
-0.05267
-0.13995
-0.01114
0.00850
-0.02249
0.00823
-0.01235
-0.02249
-0.05267
-0.12856
-0.16627
-0.01235
-0.05020
-0.08946
-0.00238
0.00823
0.08338
0.01422
0.11758
0.26399
0.04019
0.24981
0.52314
0.08647
0.40325
0.89130
0.10834
0.48503
0.72236
0.09153
0.36721
0.64989
0.00309
0.40402
0.62297
-0.00024
0.40012
0.62581
-0.00024
0.38705
0.39508
0.00309
0.39362
0.61583
0.09153
0.40486
0.63047
0.10834
0.36980
0.65372
0.08647
0.49798
0.71945
0.04019
0.39278
0.87642
0.01422
0.25476
0.53107
-0.00238
0.11920
0.26383
0.00850
0.08237
-0.01114
-0.05324
-0.08774
-0.04881
-0.12955
-0.16576
0.00225
-0.01641
0.00079
0.00245
-0.01749
-0.00071
-0.10782
-0.01429
-0.12332
-0.10464
-0.01366
-0.12701
-0.00966
-0.14008
-0.01435
-0.13748
0.00683
0.03629
0.12397
0.00598
0.03752
0.12246
0.02194
0.16733
0.29825
0.02004
0.16703
0.29886
0.05543
0.59196
0.30363
0.05903
0.58879
0.31186
0.09301
0.44554
0.81700
0.09200
0.43900
0.82167
0.06707
0.48946
0.70869
0.06275
0.49628
0.71152
-0.00173
0.44990
0.56643
-0.00051
0.45071
0.55785
0.00231
0.55037
0.41216
0.00445
0.55477
0.40932
-0.00036
0.40127
0.40092
0.39932
0.39696
0.00369
-0.16743
-0.12334
0.00225
-0.16779
-0.12066
0.00838
-0.07213
-0.05223
0.00691
-0.07088
-0.05494
0.00183
-0.01242
0.02883
0.00346
-0.01098
0.02609
0.00201
-0.12589
-0.05884
0.00459
-0.12665
-0.05853
-0.03981
-0.07455
-0.04371
-0.07573
0.01094
0.04839
0.14529
0.00978
0.04920
0.14798
0.03902
0.05968
0.34171
0.55567
0.03816
0.06023
0.33763
0.55969
0.19952
0.32694
0.19999
0.32871
0.10242
0.46035
0.85566
0.10244
0.45409
0.84512
0.06360
0.70400
0.47371
0.06557
0.71516
0.47301
0.00079
0.00015
0.42156
0.37376
-0.00027
0.00010
0.41042
0.37473
0.41962
0.47929
0.42355
0.48547
0.37317
0.37953
0.00262
-0.06077
-0.00911
0.00200
-0.06398
-0.01168
-0.03260
-0.17807
-0.04869
-0.03670
-0.17388
-0.05196
0.00819
0.00454
0.06151
0.00602
0.00490
0.06466
-0.01074
-0.12540
-0.03265
-0.01023
-0.12409
-0.03315
0.02030
0.05786
0.18816
0.02092
0.05915
0.18465
0.04258
0.20174
0.33597
0.04348
0.20342
0.33348
-0.00142
0.04949
0.38743
0.43268
-0.00198
0.04636
0.38665
0.44060
0.06586
0.32714
0.58119
0.06955
0.32534
0.57541
-0.00204
0.37273
0.32398
0.00006
0.38233
0.31888
0.42370
0.81689
0.42582
0.82994
-0.09461
-0.02548
-0.09724
-0.02605
0.00064
0.37722
0.33666
0.36748
0.32940
-0.00020
-0.06565
0.00513
-0.00004
-0.06634
0.00444
-0.04378
-0.17041
-0.03340
-0.04713
-0.16659
-0.03375
0.00864
0.00076
0.08765
0.00934
-0.00008
0.08567
-0.01740
-0.11806
-0.01995
-0.01658
-0.11739
-0.01635
0.01996
0.05301
0.18604
0.01849
0.05594
0.18542
0.04882
0.17048
0.33696
0.04940
0.17221
0.34303
0.04901
-0.00446
0.38081
0.31540
0.04808
-0.00367
0.38825
0.30822
0.06197
0.26851
0.51262
0.06211
0.27185
0.50787
0.75302
0.35848
0.74693
0.35438
-0.00035
0.34222
0.32312
-0.00039
0.34724
0.32524
0.34809
0.35014
-0.10016
-0.03145
-0.10305
-0.02811
-0.00418
-0.06297
0.03936
-0.00207
-0.06633
0.03817
-0.05103
-0.16906
-0.03801
-0.05053
-0.16718
-0.03676
0.00851
-0.00156
0.10798
0.00796
-0.00226
0.10122
-0.02524
-0.12734
-0.00663
-0.02676
-0.12551
-0.01084
0.02247
0.04384
0.21586
0.02172
0.04420
0.21539
0.04249
0.13913
0.32263
0.04086
0.13678
0.31820
0.05869
0.05158
0.26283
0.51669
0.06244
0.05039
0.25781
0.52015
0.20263
0.50158
0.20514
0.51005
-0.00130
0.33228
0.25866
-0.00303
0.33084
0.26072
-0.00307
0.29297
0.29064
0.29628
0.28981
-0.10864
-0.11293
-0.00730
-0.07536
0.02685
-0.00873
-0.07497
0.02866
-0.05859
-0.05822
-0.06153
-0.04920
0.00807
-0.02377
0.09939
0.00955
-0.02112
0.10238
0.01436
0.01363
0.17931
0.01320
0.01519
0.17938
0.04091
0.09443
0.29919
0.03956
0.09623
0.29748
0.02477
0.14521
0.37914
0.02603
0.14377
0.37653
-0.02915
-0.13242
-0.02818
-0.02719
-0.12805
-0.02873
-0.00539
0.28463
0.22188
-0.00375
0.28567
0.22216
-0.00441
0.31313
0.25814
-0.00454
0.31772
0.25928
0.26381
0.26654
-0.01113
-0.08366
0.03438
-0.01327
-0.08560
0.02955
-0.05682
-0.07916
-0.06451
-0.08221
0.01051
-0.03921
0.09075
0.00824
-0.03796
0.09129
0.00884
-0.01065
0.17188
0.00861
-0.01025
0.17083
0.04456
0.04632
0.23197
0.04645
0.04794
0.23074
-0.03316
-0.14972
-0.04843
-0.03443
-0.14871
-0.04669
0.03242
0.07414
0.31288
0.03335
0.07217
0.31065
-0.00381
0.24634
0.20184
-0.00746
0.24399
0.20275
-0.00636
0.25731
0.21337
0.26117
0.20962
-0.01127
-0.11184
-0.01309
-0.00990
-0.11236
-0.01274
0.00388
-0.06768
0.04477
0.00181
-0.06945
0.04490
-0.07366
-0.07968
0.01896
-0.03987
0.09532
0.01733
-0.03884
0.09539
0.01775
-0.01697
0.16069
0.01917
-0.01646
0.16251
-0.03268
-0.09500
-0.03429
-0.09041
-0.00132
0.11761
0.16541
-0.00184
0.11958
0.16351
-0.00644
0.17956
0.16728
-0.00540
0.17581
0.16485
0.17802
0.18137
-0.01655
-0.13724
-0.05089
-0.01615
-0.13862
-0.04865
-0.01898
-0.10097
-0.00668
-0.02045
-0.10213
-0.00964
0.01929
-0.07159
0.06673
0.01735
-0.07012
0.06488
0.01417
-0.04671
0.11873
0.01282
-0.04538
0.11959
-0.00243
0.13209
0.11255
0.00042
0.13789
0.11359
-0.00435
0.13070
0.13142
0.13064
0.12847
-0.03982
-0.12409
-0.04279
-0.12106
-0.03971
-0.16810
-0.09871
-0.04433
-0.16805
-0.09340
-0.02867
-0.13686
-0.05765
-0.03219
-0.13670
-0.05587
0.00395
-0.01691
-0.10862
0.00607
-0.01479
-0.11029
0.00199
0.00966
0.06771
0.00110
0.01127
0.06362
0.00160
0.08576
0.07721
0.00025
0.08613
0.07548
0.08141
0.07949
-0.07151
-0.07202
-0.06363
-0.07245
-0.02592
0.00156
-0.03433
-0.14131
-0.02879
0.00070
-0.02857
-0.14147
-0.11647
-0.11412
0.00467
-0.00093
0.00579
0.00724
0.00070
0.00553
0.00450
0.01241
0.01177
0.01157
0.01244
-0.03598
0.01313
-0.06820
-0.03383
0.01037
-0.07145
0.01061
-0.07884
-0.05711
0.01003
-0.08083
-0.05286
-0.06491
-0.06572
0.00884
0.00747
0.01104
0.00978
0.00900
0.03114
0.03036
0.00912
0.03175
0.03050
0.02747
0.02438
0.02632
0.02291
0.00976
0.00968
0.07644
0.07606
0.01185
0.08203
0.06543
0.01113
0.08197
0.06586
0.00130
-0.00563
0.01109
0.00008
-0.00376
0.01196
0.08798
0.05994
0.08836
0.06105
0.00774
0.00798
0.11354
0.09927
0.00800
0.11317
0.09941
0.00896
0.12404
0.08733
0.00862
0.12286
0.08702
0.00681
-0.04124
-0.03281
0.07044
0.00877
-0.04022
-0.03203
0.07007
0.12585
0.12727
0.12383
0.12634
-0.04672
-0.06935
0.00519
-0.04821
-0.06788
0.00877
-0.10310
-0.03450
-0.10264
-0.03125
0.00437
0.00339
0.12725
0.12819
0.00394
0.14443
0.11926
0.00395
0.14317
0.12098
0.01961
0.15236
0.10544
0.02155
0.15127
0.10597
-0.01036
0.11685
0.19871
-0.00936
0.11600
0.19746
-0.02779
0.01409
0.12696
-0.02644
0.01464
0.12847
-0.02574
-0.02282
0.05806
-0.02611
-0.02257
0.05931
-0.06069
0.01018
-0.06097
0.01045
0.00072
-0.00033
0.15225
0.14614
-0.00024
0.15147
0.14759
0.00417
0.16541
0.12736
0.00430
0.16442
0.12724
0.01829
0.16886
0.27056
0.01830
0.16769
0.27146
-0.00346
0.04849
0.26885
-0.00210
0.04795
0.27027
-0.00432
0.05835
0.17895
-0.00344
0.05825
0.18088
-0.02738
0.02624
0.11365
-0.02619
0.02607
0.11453
-0.00270
-0.00217
0.18852
0.19028
-0.00192
0.21982
0.16726
-0.00193
0.21833
0.16783
0.03396
0.23105
0.14301
0.03400
0.22931
0.14426
-0.05960
-0.02122
0.04689
-0.06006
-0.02068
0.04578
0.03401
0.24914
0.40288
0.03477
0.24677
0.40374
0.01687
0.13444
0.30685
0.01676
0.13385
0.30779
-0.07075
0.00216
-0.07013
0.00116
-0.00178
0.07045
0.21721
-0.00003
0.06937
0.21837
-0.02105
0.03942
0.13114
-0.02081
0.03961
0.13040
-0.00422
-0.00377
0.22210
0.20084
-0.00425
0.22022
0.20064
-0.00108
0.24997
0.17750
-0.00125
0.24802
0.17809
0.02987
0.25796
0.44310
0.02947
0.25664
0.44502
-0.04544
0.00279
0.06533
-0.04771
0.00410
0.06842
0.02660
0.21079
0.47640
0.02674
0.20865
0.47828
0.01907
0.17890
0.34176
0.01973
0.17711
0.34334
0.00302
0.10240
0.22482
0.00331
0.10044
0.22654
-0.04938
0.00912
-0.04783
0.01296
-0.01876
0.06873
0.13103
-0.01774
0.06893
0.13423
-0.00348
-0.00380
0.24386
0.24461
-0.00547
0.26601
0.22005
-0.00474
0.26459
0.22149
0.05447
0.28194
0.19187
0.05411
0.27934
0.19348
-0.04710
0.02538
0.05840
-0.04536
0.02517
0.05817
0.04930
0.69676
0.33672
0.04867
0.69955
0.33609
0.03298
0.27971
0.50509
0.03385
0.27838
0.50490
0.02239
0.23241
0.33813
0.02324
0.23049
0.33863
0.00407
0.12734
0.20875
0.00444
0.12574
0.20867
-0.09385
-0.04011
0.01097
-0.09256
-0.03825
0.01272
-0.01105
0.08891
0.10698
-0.01146
0.08794
0.10709
-0.09418
0.00188
-0.09232
0.00224
-0.00204
-0.00411
0.28919
0.27399
-0.00397
0.28879
0.27536
-0.00332
0.30990
0.24986
-0.00339
0.30888
0.25025
0.04456
0.06035
0.37222
0.76480
0.04382
0.06022
0.37047
0.76281
0.63838
0.32360
0.63818
0.32137
0.03898
0.33040
0.51204
0.03917
0.32900
0.51377
0.02296
0.27154
0.32508
0.02286
0.27050
0.32710
-0.03909
0.03909
0.04159
-0.03714
0.03963
0.04290
0.00746
0.14875
0.17639
0.00753
0.14804
0.17835
-0.08142
-0.02682
0.00923
-0.08125
-0.02582
0.00873
-0.00519
0.10269
0.07574
-0.00510
0.10281
0.07751
-0.09124
-0.00060
-0.09069
-0.00256
-0.00220
-0.00184
0.30488
0.30531
-0.00182
0.33340
0.28170
-0.00205
0.33133
0.28251
0.09306
0.06737
1.09514
0.39111
0.09263
0.06747
1.10111
0.38836
0.06515
0.43842
0.77935
0.06538
0.43687
0.77995
0.35265
0.35005
0.35024
0.35049
0.04251
0.40037
0.49108
0.04222
0.39741
0.49125
0.02188
0.31489
0.28382
0.02198
0.31428
0.28416
-0.03046
0.04633
0.01793
-0.02974
0.04608
0.01842
0.00774
0.14430
0.13013
0.00877
0.14377
0.13106
-0.07800
-0.02540
0.00097
-0.07882
-0.02520
0.00087
0.00345
0.09541
0.03505
0.00265
0.09578
0.03468
-0.00037
-0.00011
0.35533
0.33331
-0.00039
0.35508
0.33516
-0.09179
-0.00657
-0.09136
-0.00648
0.10041
0.07316
0.41400
1.01537
0.10055
0.07206
0.41073
1.01318
0.00035
0.42615
0.37366
0.00067
0.42708
0.37173
0.06547
0.47401
0.76975
0.06492
0.47155
0.76931
0.39037
0.75989
0.38867
0.76546
0.03940
0.45926
0.41550
0.03920
0.46093
0.41169
0.01503
0.30875
0.24005
0.01587
0.30648
0.24150
-0.02072
0.03413
-0.00749
-0.02131
0.03446
-0.00666
0.01116
0.13438
0.09040
0.01099
0.13246
0.09121
-0.04896
-0.04000
-0.03892
-0.04951
-0.04009
-0.03744
0.01497
0.07977
0.00259
0.01430
0.07994
0.00407
0.00127
0.00069
0.36346
0.36544
0.00195
0.10733
0.38731
0.52607
0.00176
0.10795
0.38663
0.52299
0.38012
0.53882
0.37962
0.53946
0.14162
0.45022
0.65490
0.14122
0.44910
0.65427
0.10128
0.45723
0.91611
0.10118
0.45541
0.92144
0.05744
0.02938
0.39573
0.41895
0.05709
0.02974
0.39467
0.41890
0.49781
0.75140
0.49454
0.75396
0.01097
0.27262
0.19916
0.01144
0.27152
0.19933
-0.08946
-0.01461
-0.08939
-0.01323
0.01259
0.01623
-0.05776
0.01323
0.01626
-0.05713
0.01804
0.09903
0.06036
0.01708
0.09848
0.06105
0.01914
0.04552
-0.01840
0.01818
0.04550
-0.01759
-0.02071
-0.04232
-0.09974
-0.02077
-0.04286
-0.09824
0.00196
0.00138
0.60761
0.37432
0.00133
0.37393
0.60620
0.00207
0.61446
0.37799
0.00243
0.37782
0.61181
0.10442
0.64845
0.37569
0.10337
0.37461
0.64835
0.14649
0.65470
0.47958
0.14659
0.47840
0.65609
0.09122
0.97381
0.50917
0.09156
0.50963
0.97342
0.04507
0.69936
0.47580
0.04505
0.47389
0.70185
0.01552
0.38475
0.32884
0.01539
0.32767
0.38644
0.01385
0.17659
0.20249
0.01400
0.20120
0.17762
-0.06085
-0.01238
-0.06165
-0.01238
-0.00388
0.00580
-0.07748
0.00631
-0.00284
-0.07748
0.02142
0.05621
0.06742
0.05589
0.02116
0.06742
-0.00284
-0.06165
-0.09824
0.02116
0.00631
-0.01759
0.00851
0.05589
0.17762
0.02929
0.20120
0.38644
0.07668
0.32767
0.70185
0.13470
0.47389
0.97342
0.09657
0.50963
0.65609
0.00099
0.47840
0.64835
0.00116
0.37461
0.61181
0.00126
0.37782
0.60620
0.00126
0.37393
0.37432
0.00116
0.37799
0.60761
0.00099
0.37569
0.61446
0.09657
0.47958
0.64845
0.13470
0.50917
0.65470
0.07668
0.47580
0.97381
0.02929
0.32884
0.69936
0.00851
0.20249
0.38475
0.05621
0.17659
0.02142
0.00580
-0.01840
-0.00388
-0.06085
-0.09974
0.01400
0.04550
0.06105
0.01385
0.04552
0.06036
-0.04286
0.01818
-0.05713
-0.04232
0.01914
-0.05776
-0.02077
-0.01323
-0.02071
-0.01461
0.01539
0.09848
0.19933
0.01552
0.09903
0.19916
0.04505
0.27152
0.41890
0.04507
0.27262
0.41895
0.09156
0.75396
0.39467
0.09122
0.75140
0.39573
0.14659
0.49454
0.92144
0.14649
0.49781
0.91611
0.10337
0.45541
0.65427
0.10442
0.45723
0.65490
0.00243
0.44910
0.52299
0.00207
0.45022
0.52607
0.00133
0.53946
0.38663
0.00138
0.53882
0.38731
0.00196
0.37962
0.36544
0.38012
0.36346
0.01626
-0.08939
-0.03744
0.01623
-0.08946
-0.03892
0.01708
0.01323
0.00407
0.01804
0.01259
0.00259
0.01144
0.07994
0.09121
0.01097
0.07977
0.09040
0.01430
-0.04009
-0.00666
0.01497
-0.04000
-0.00749
-0.04951
-0.00648
-0.04896
-0.00657
0.02974
0.13246
0.24150
0.02938
0.13438
0.24005
0.05709
0.10118
0.41169
0.76931
0.05744
0.10128
0.41550
0.76975
0.30648
0.46093
0.30875
0.45926
0.14122
0.47155
1.01318
0.14162
0.47401
1.01537
0.10795
0.76546
0.41073
0.10733
0.75989
0.41400
0.00176
0.00069
0.37173
0.33516
0.00195
0.00127
0.37366
0.33331
0.38867
0.42708
0.39037
0.42615
0.35508
0.35533
0.01099
0.03446
0.03468
0.01116
0.03413
0.03505
-0.02131
-0.09136
0.00087
-0.02072
-0.09179
0.00097
0.01587
0.09578
0.13106
0.01503
0.09541
0.13013
0.00265
-0.02520
0.01842
0.00345
-0.02540
0.01793
0.03920
0.14377
0.28416
0.03940
0.14430
0.28382
0.06492
0.31428
0.49125
0.06547
0.31489
0.49108
0.00067
0.07206
0.35049
0.38836
0.00035
0.07316
0.35005
0.39111
0.10055
0.39741
0.77995
0.10041
0.40037
0.77935
-0.00039
0.35024
0.28251
-0.00011
0.35265
0.28170
0.43687
1.10111
0.43842
1.09514
-0.07882
-0.00256
-0.07800
-0.00060
-0.00037
0.33133
0.30531
0.33340
0.30488
0.00877
0.04608
0.07751
0.00774
0.04633
0.07574
-0.02974
-0.09069
0.00873
-0.03046
-0.09124
0.00923
0.02198
0.10281
0.17835
0.02188
0.10269
0.17639
-0.00510
-0.02582
0.04290
-0.00519
-0.02682
0.04159
0.04222
0.14804
0.32710
0.04251
0.14875
0.32508
0.06538
0.27050
0.51377
0.06515
0.27154
0.51204
0.06747
-0.00205
0.32137
0.25025
0.06737
-0.00182
0.32360
0.24986
0.09263
0.32900
0.76281
0.09306
0.33040
0.76480
0.63818
0.37047
0.63838
0.37222
-0.00184
0.30888
0.27536
-0.00220
0.30990
0.27399
0.28879
0.28919
-0.08125
0.00224
-0.08142
0.00188
0.00753
0.03963
0.10709
0.00746
0.03909
0.10698
-0.03714
-0.09232
0.01272
-0.03909
-0.09418
0.01097
0.02286
0.08794
0.20867
0.02296
0.08891
0.20875
-0.01146
-0.03825
0.05817
-0.01105
-0.04011
0.05840
0.03917
0.12574
0.33863
0.03898
0.12734
0.33813
0.06022
0.23049
0.50490
0.06035
0.23241
0.50509
0.04382
-0.00339
0.33609
0.19348
0.04456
-0.00332
0.33672
0.19187
0.27838
0.69955
0.27971
0.69676
-0.00397
0.27934
0.22149
-0.00411
0.28194
0.22005
-0.00204
0.26459
0.24461
0.26601
0.24386
-0.09256
-0.09385
0.00444
0.02517
0.13423
0.00407
0.02538
0.13103
-0.04536
0.01296
-0.04710
0.00912
0.02324
0.06893
0.22654
0.02239
0.06873
0.22482
0.03385
0.10044
0.34334
0.03298
0.10240
0.34176
0.04867
0.17711
0.47828
0.04930
0.17890
0.47640
0.05411
0.20865
0.44502
0.05447
0.21079
0.44310
-0.01774
-0.04783
0.06842
-0.01876
-0.04938
0.06533
-0.00474
0.25664
0.17809
-0.00547
0.25796
0.17750
-0.00380
0.24802
0.20064
-0.00348
0.24997
0.20084
0.22022
0.22210
0.00331
0.00410
0.13040
0.00302
0.00279
0.13114
-0.04771
0.00116
-0.04544
0.00216
0.01973