# vtk DataFile Version 3.0
Point representing Sub_cellular elem model
ASCII

DATASET UNSTRUCTURED_GRID
POINTS 3657 float
-53.95574 -3.05585 52.66052 
-53.93454 3.24356 52.69465 
-53.56403 -9.30994 52.30774 
-53.55372 9.54023 52.36955 
-50.82184 0.04947 56.42255 
-50.52519 -6.13723 56.15130 
-50.55052 6.25602 56.13697 
-50.80660 -17.14219 52.94705 
-50.69803 17.26905 53.02658 
-50.21514 -12.21015 55.62888 
-50.10081 12.38084 55.74731 
-47.10839 -3.05320 59.41584 
-47.13242 3.13044 59.40817 
-46.83039 -9.22374 59.10547 
-46.81978 9.24698 59.13441 
-47.10879 -20.15636 56.14109 
-47.04104 20.27758 56.17543 
-46.54181 -15.10122 58.19936 
-46.46986 15.15510 58.28127 
-47.60985 -24.82402 52.98818 
-47.53586 25.11253 53.22502 
-47.58056 -29.68277 49.88341 
-47.44378 29.97468 50.04962 
-43.60933 -0.00618 62.24489 
-43.52751 -6.16632 62.20510 
-43.51744 6.17157 62.22686 
-43.09053 -12.07743 61.57076 
-43.06056 12.11075 61.64532 
-42.84475 -18.00971 60.70225 
-42.80485 18.01903 60.77781 
-43.32580 -23.05546 58.37012 
-43.26601 23.14502 58.47912 
-43.85300 -28.03833 55.90516 
-43.74543 28.22176 56.02909 
-43.06938 -33.60895 53.21394 
-42.85519 33.83144 53.25061 
-39.94046 -3.05133 64.70239 
-39.91183 3.08303 64.72549 
-39.64738 -9.02622 64.42273 
-39.62517 9.00099 64.42575 
-39.21116 -14.79738 63.81003 
-39.19619 14.81207 63.84801 
-38.93362 -20.62606 62.63233 
-38.91094 20.69644 62.68164 
-39.45499 -25.70525 60.55945 
-39.35761 25.81111 60.66015 
-38.91134 -31.33093 58.34669 
-38.80837 31.42574 58.47345 
-36.42108 0.00975 67.11482 
-36.20097 -5.89799 66.84963 
-36.13646 5.89833 66.88965 
-35.74407 -11.80741 66.64675 
-35.74456 11.82149 66.66509 
-38.06521 -36.83103 55.75263 
-37.93386 36.96445 55.99406 
-35.32716 -17.56947 65.71557 
-35.34880 17.56323 65.74452 
-35.09506 -23.26008 64.49593 
-35.04885 23.26988 64.57454 
-37.25481 -41.71101 51.89143 
-37.12451 41.98678 52.17115 
-34.60215 -28.80319 62.57195 
-34.48362 28.84331 62.70294 
-33.93012 -34.43870 60.45081 
-33.81124 34.46615 60.59939 
-31.91231 -3.13336 69.33455 
-31.87802 3.08798 69.35742 
-31.50602 -9.04151 69.06266 
-31.51667 9.06558 69.10426 
-30.91918 -14.82200 68.57644 
-30.90372 14.80361 68.61223 
-32.94097 -39.78433 57.37529 
-32.84453 39.86284 57.50852 
-30.61233 -20.61715 67.52968 
-30.60311 20.55623 67.58360 
-31.01652 -25.70465 65.76164 
-30.94616 25.66902 65.86333 
-30.35724 -31.28908 63.82454 
-30.27169 31.30810 63.92091 
-32.05202 -44.85368 53.98009 
-31.72782 45.03224 54.23040 
-29.59835 -36.78905 61.38491 
-29.46395 36.84712 61.46559 
-27.31245 -0.01039 71.45995 
-27.29968 -6.26111 71.43316 
-27.27745 6.24412 71.45082 
-26.60038 -12.22776 70.91426 
-26.54012 12.17583 70.92669 
-28.53444 -42.13462 58.39779 
-28.41884 42.17388 58.51980 
-26.24533 -17.97432 70.23495 
-26.20945 17.91205 70.28925 
-26.51226 -23.04231 68.68383 
-26.47179 23.02254 68.74545 
-26.86005 -28.15548 66.97890 
-26.81118 28.17446 67.04057 
-26.06559 -33.64749 64.74113 
-26.01855 33.67602 64.83700 
-27.30742 -47.29952 54.70970 
-27.11058 47.38899 54.75998 
-25.18893 -39.16561 62.28457 
-25.08113 39.21747 62.36502 
-26.24788 -51.52814 49.87410 
-25.97718 51.74866 50.01095 
-22.67071 -3.15134 73.22590 
-22.61656 3.13687 73.21027 
-22.37421 -9.33698 72.86138 
-22.36708 9.35748 72.86832 
-22.09856 -20.28487 71.12582 
-22.09483 20.27684 71.18012 
-21.82704 -15.13286 72.25443 
-21.76199 15.15320 72.29407 
-22.38166 -25.42346 69.58306 
-22.31030 25.42689 69.61497 
-22.55646 -30.43771 67.62657 
-22.51169 30.48071 67.66719 
-23.87479 -44.50777 58.95143 
-23.74899 44.59404 59.00426 
-21.71085 -35.90525 65.33776 
-21.60230 35.95701 65.39601 
-22.63174 -49.72809 54.96452 
-22.45334 49.80983 55.05996 
-20.48650 -41.40582 62.49703 
-20.36485 41.42064 62.58780 
-21.14835 -54.06698 50.19733 
-20.85510 54.19809 50.34504 
-18.00829 -0.01251 74.88229 
-17.83246 -6.23474 74.54436 
-17.85309 6.21195 74.54149 
-17.76430 -17.53467 73.10072 
-17.69349 17.52473 73.13969 
-17.98368 -22.69876 71.93846 
-17.95281 22.69066 71.97205 
-17.61310 -12.38086 74.09835 
-17.56299 12.34508 74.12523 
-18.09636 -27.72192 70.14446 
-18.08436 27.72045 70.18020 
-18.26501 -32.70430 68.15994 
-18.21693 32.74356 68.19381 
-19.10574 -46.72357 59.06047 
-19.02599 46.74139 59.13306 
-17.07868 -38.14120 65.56797 
-16.93669 38.15620 65.63534 
-17.67373 -51.67870 54.95100 
-17.50228 51.75510 55.01758 
-15.71869 -43.59636 62.72188 
-15.61324 43.63152 62.76978 
-13.40943 -3.17554 75.76227 
-13.37442 3.15306 75.80272 
-16.03427 -56.09714 50.22074 
-15.72620 56.23379 50.38904 
-13.44734 -19.84813 73.69253 
-13.43226 19.85041 73.70858 
-13.22679 -9.42529 75.37939 
-13.22680 9.35942 75.38550 
-13.55354 -24.95366 72.22301 
-13.50347 24.91526 72.26190 
-13.23106 -14.68468 74.72066 
-13.18331 14.63648 74.74676 
-13.59454 -29.99247 70.37304 
-13.57414 29.94832 70.42425 
-13.87432 -34.76064 68.13029 
-13.78747 34.73324 68.19413 
-14.21676 -48.68493 59.03967 
-14.15396 48.72203 59.07923 
-12.47585 -40.16154 65.48299 
-12.43026 40.17979 65.47796 
-12.79125 -53.61699 54.92432 
-12.56561 53.68535 54.96873 
-11.05657 -45.45541 62.26852 
-10.89109 45.49919 62.34558 
-8.91381 -0.00224 76.61390 
-8.85161 -11.67673 75.90683 
-8.83401 11.67257 75.89331 
-8.85706 -6.34681 76.54605 
-8.80704 6.33516 76.55640 
-8.94916 -16.87187 75.21156 
-8.91967 16.86856 75.22503 
-9.06695 -21.98793 73.88579 
-8.98885 21.99592 73.90547 
-9.16469 -31.91446 70.29069 
-9.09479 31.96382 70.32555 
-9.03820 -27.13069 72.38894 
-8.99244 27.12713 72.40930 
-9.32215 -36.74211 68.08255 
-9.27799 36.81141 68.07533 
-10.03678 -57.22827 51.26267 
-9.70800 57.24734 51.24167 
-9.48981 -50.52600 58.57616 
-9.40379 50.52159 58.63404 
-7.88052 -42.02907 65.06520 
-7.78004 42.06910 65.07685 
-6.31008 -47.25511 61.93262 
-6.11920 47.31580 61.93035 
-6.55792 -54.14402 55.60513 
-6.37918 54.13905 55.65412 
-4.38887 -3.17179 77.08573 
-4.34719 3.19988 77.09205 
-4.43700 -8.57413 76.70488 
-4.40470 8.56754 76.70815 
-4.44168 -13.89886 76.06562 
-4.41608 13.87433 76.09585 
-4.52224 -18.97544 75.14876 
-4.49594 18.99853 75.14857 
-4.52275 -24.03029 73.79118 
-4.44203 24.06701 73.78834 
-4.52528 -28.92212 72.05992 
-4.50363 28.88375 72.05794 
-4.62131 -33.70803 69.93932 
-4.58583 33.72691 69.94386 
-4.71684 -38.48491 67.50238 
-4.65275 38.52486 67.49636 
-3.50785 -57.61017 52.08917 
-3.24059 57.62962 52.06916 
-3.27551 -50.83669 59.16035 
-3.12909 50.86709 59.10702 
-3.11093 -43.70228 64.48953 
-2.97827 43.72534 64.49027 
-0.08616 -54.38695 56.16312 
-0.07563 -47.39002 61.98936 
-0.04433 -40.12098 66.87977 
-0.01197 -35.36656 69.31552 
0.00938 -30.61296 71.62582 
-0.04770 -25.70356 73.38387 
-0.00827 -20.90985 74.93998 
-0.00071 -15.88030 75.92055 
-0.00242 -10.73781 76.76262 
-0.03708 -5.34630 77.13929 
-0.00000 -0.00000 77.42174 
0.03708 5.34630 77.13929 
0.00242 10.73781 76.76262 
0.00071 15.88030 75.92055 
0.00827 20.90985 74.93998 
0.04770 25.70356 73.38387 
-0.00938 30.61296 71.62582 
0.01197 35.36656 69.31552 
0.04433 40.12098 66.87977 
0.07563 47.39002 61.98936 
0.08616 54.38695 56.16312 
2.97827 -43.72534 64.49027 
3.11093 43.70228 64.48953 
3.12909 -50.86709 59.10702 
3.27551 50.83669 59.16035 
3.24059 -57.62962 52.06916 
3.50785 57.61017 52.08917 
4.65275 -38.52486 67.49636 
4.71684 38.48491 67.50238 
4.58583 -33.72691 69.94386 
4.62131 33.70803 69.93932 
4.50363 -28.88375 72.05794 
4.52528 28.92212 72.05992 
4.44203 -24.06701 73.78834 
4.52275 24.03029 73.79118 
4.49594 -18.99853 75.14857 
4.52224 18.97544 75.14876 
4.41608 -13.87433 76.09585 
4.44168 13.89886 76.06562 
4.40470 -8.56754 76.70815 
4.43700 8.57413 76.70488 
4.34719 -3.19988 77.09205 
4.38887 3.17179 77.08573 
6.37918 -54.13905 55.65412 
6.55792 54.14402 55.60513 
6.11920 -47.31580 61.93035 
6.31008 47.25511 61.93262 
7.78004 -42.06910 65.07685 
7.88052 42.02907 65.06520 
9.40379 -50.52159 58.63404 
9.48981 50.52600 58.57616 
9.70800 -57.24734 51.24167 
10.03678 57.22827 51.26267 
9.27799 -36.81141 68.07533 
9.32215 36.74211 68.08255 
8.99244 -27.12713 72.40930 
9.03820 27.13069 72.38894 
9.09479 -31.96382 70.32555 
9.16469 31.91446 70.29069 
8.98885 -21.99592 73.90547 
9.06695 21.98793 73.88579 
8.91967 -16.86856 75.22503 
8.94916 16.87187 75.21156 
8.80704 -6.33516 76.55640 
8.85706 6.34681 76.54605 
8.83401 -11.67257 75.89331 
8.85161 11.67673 75.90683 
8.91381 0.00224 76.61390 
10.89109 -45.49919 62.34558 
11.05657 45.45541 62.26852 
12.56561 -53.68535 54.96873 
12.79125 53.61699 54.92432 
12.43026 -40.17979 65.47796 
12.47585 40.16154 65.48299 
14.15396 -48.72203 59.07923 
14.21676 48.68493 59.03967 
13.78747 -34.73324 68.19413 
13.87432 34.76064 68.13029 
13.57414 -29.94832 70.42425 
13.59454 29.99247 70.37304 
13.18331 -14.63648 74.74676 
13.23106 14.68468 74.72066 
13.50347 -24.91526 72.26190 
13.55354 24.95366 72.22301 
13.22680 -9.35942 75.38550 
13.22679 9.42529 75.37939 
13.43226 -19.85041 73.70858 
13.44734 19.84813 73.69253 
15.72620 -56.23379 50.38904 
16.03427 56.09714 50.22074 
13.37442 -3.15306 75.80272 
13.40943 3.17554 75.76227 
15.61324 -43.63152 62.76978 
15.71869 43.59636 62.72188 
17.50228 -51.75510 55.01758 
17.67373 51.67870 54.95100 
16.93669 -38.15620 65.63534 
17.07868 38.14120 65.56797 
19.02599 -46.74139 59.13306 
19.10574 46.72357 59.06047 
18.21693 -32.74356 68.19381 
18.26501 32.70430 68.15994 
18.08436 -27.72045 70.18020 
18.09636 27.72192 70.14446 
17.56299 -12.34508 74.12523 
17.61310 12.38086 74.09835 
17.95281 -22.69066 71.97205 
17.98368 22.69876 71.93846 
17.69349 -17.52473 73.13969 
17.76430 17.53467 73.10072 
17.85309 -6.21195 74.54149 
17.83246 6.23474 74.54436 
18.00829 0.01251 74.88229 
20.85510 -54.19809 50.34504 
21.14835 54.06698 50.19733 
20.36485 -41.42064 62.58780 
20.48650 41.40582 62.49703 
22.45334 -49.80983 55.05996 
22.63174 49.72809 54.96452 
21.60230 -35.95701 65.39601 
21.71085 35.90525 65.33776 
23.74899 -44.59404 59.00426 
23.87479 44.50777 58.95143 
22.51169 -30.48071 67.66719 
22.55646 30.43771 67.62657 
22.31030 -25.42689 69.61497 
[...]
CELL_DATA 40900
SCALARS Strain double 1
LOOKUP_TABLE default
0.01272
0.00886
-0.05297
-0.04230
0.00891
-0.05328
-0.04352
-0.06758
-0.04873
-0.06612
-0.04711
0.01447
0.01430
0.00568
0.00636
0.01900
0.00563
0.00294
0.02011
0.00542
0.00338
-0.01641
-0.08206
-0.11980
-0.01806
-0.08350
-0.11958
-0.00458
-0.00838
-0.00500
-0.00969
0.01148
0.01292
0.05736
0.05157
0.01231
0.05705
0.05265
0.01117
0.05848
0.04562
0.01103
0.05816
0.04780
-0.00650
-0.04075
-0.08828
-0.02373
-0.00665
-0.03612
-0.08743
-0.02540
0.00195
0.00145
0.00099
0.00210
-0.04862
-0.11516
-0.06931
-0.04866
-0.11467
-0.07067
-0.13925
-0.09277
-0.13931
-0.09389
0.00676
0.00784
0.09048
0.09088
0.00838
0.09259
0.07820
0.00881
0.09264
0.07776
0.01027
0.09213
0.08529
0.00932
0.08958
0.08575
-0.01489
-0.03727
0.06274
-0.01491
-0.03703
0.06322
-0.02224
-0.06099
0.01273
-0.02193
-0.06119
0.01331
-0.02607
-0.08965
-0.02955
-0.02620
-0.08856
-0.02922
-0.11449
-0.05835
-0.11383
-0.06026
0.00318
0.00570
0.12518
0.11464
0.00490
0.12437
0.11522
0.02052
0.12394
0.10474
0.02064
0.12494
0.10593
0.01869
0.08063
0.11826
0.01843
0.07982
0.11898
-0.00572
-0.01337
0.08674
-0.00518
-0.01376
0.08668
-0.00208
-0.03680
0.04585
-0.00246
-0.03709
0.04596
-0.01572
-0.05970
0.00151
-0.01501
-0.05869
0.00227
0.00133
0.00097
0.14788
0.14924
0.00451
0.18053
0.13647
0.00510
0.17919
0.13705
0.02209
0.17459
0.19623
0.02182
0.17575
0.19724
-0.05157
-0.08924
-0.01759
-0.04922
-0.08877
-0.01687
0.02329
0.05224
0.16573
0.02396
0.05278
0.16595
0.01188
0.02884
0.13338
0.01233
0.02833
0.13352
-0.12546
-0.05742
-0.12470
-0.05592
-0.00110
-0.01429
0.07999
-0.00189
-0.01403
0.08101
-0.02383
-0.03554
0.04079
-0.02407
-0.03536
0.04322
0.00003
-0.00047
0.18100
0.17292
0.00107
0.18147
0.17223
0.03175
0.21605
0.14574
0.03200
0.21354
0.14520
0.03880
0.19619
0.24207
0.03879
0.19468
0.24336
-0.04029
-0.07001
-0.00007
-0.03696
-0.06813
0.00050
0.01417
0.10095
0.20719
0.01395
0.10132
0.20612
0.01354
0.06232
0.14012
0.01345
0.06253
0.14007
-0.00452
0.00516
0.09331
-0.00449
0.00555
0.09246
-0.10564
-0.02376
-0.10645
-0.02538
-0.01848
-0.02121
0.04165
-0.01962
-0.02176
0.04131
-0.00003
-0.00004
0.19815
0.19742
-0.00003
0.20507
0.17594
-0.00081
0.20340
0.17481
0.02926
0.23331
0.31231
0.02962
0.23704
0.30881
-0.04230
-0.06008
0.01242
-0.04296
-0.05935
0.01497
0.03652
0.31774
0.17752
0.03621
0.31391
0.18041
0.01655
0.13892
0.22567
0.01618
0.13872
0.22643
0.01220
0.09097
0.16261
0.01030
0.09284
0.16253
-0.00476
0.02624
0.09506
-0.00477
0.02728
0.09700
-0.08145
-0.09814
-0.01065
-0.07904
-0.09867
-0.01078
-0.02196
-0.00669
0.04895
-0.02185
-0.00571
0.04981
-0.13796
-0.02270
-0.13868
-0.02395
0.00079
0.00114
0.23141
0.21701
0.00180
0.23180
0.21741
0.03813
0.23829
0.21027
0.03886
0.23685
0.21270
0.05096
0.03564
0.23675
0.32416
0.04907
0.03589
0.23732
0.32508
0.42536
0.26443
0.42759
0.26140
0.02093
0.18010
0.23750
0.02012
0.17934
0.23634
0.00986
0.11596
0.15029
0.00953
0.11583
0.15038
-0.04262
-0.04994
0.01102
-0.04336
-0.04846
0.01062
-0.00268
0.03633
0.08570
-0.00371
0.03583
0.08619
-0.07777
-0.09295
-0.00927
-0.07687
-0.09254
-0.00901
-0.01670
-0.00191
0.02832
-0.01743
-0.00118
0.02874
-0.13446
-0.01747
-0.13602
-0.01676
0.00240
0.00245
0.22386
0.22559
0.00043
0.24865
0.21653
0.00020
0.25157
0.21853
0.05060
0.03953
0.46909
0.28826
0.05035
0.03950
0.46673
0.28552
0.04011
0.27903
0.35617
0.03921
0.27876
0.35758
0.26184
0.26468
0.25938
0.26490
0.01720
0.21461
0.23585
0.01732
0.21471
0.23685
0.00824
0.13728
0.15046
0.00753
0.13664
0.15135
-0.03924
-0.05088
-0.00108
-0.03856
-0.04977
-0.00053
-0.00315
0.04050
0.07119
-0.00419
0.04043
0.07147
-0.07600
-0.09491
-0.02011
-0.07482
-0.09434
-0.01904
-0.01443
0.00124
0.01823
-0.01463
0.00220
0.01805
0.00175
0.00149
0.25612
0.24948
0.00100
0.25529
0.24804
-0.13876
-0.05400
-0.14012
-0.05248
0.05603
0.04167
0.30504
0.47883
0.05409
0.04274
0.30574
0.47903
0.00067
0.31753
0.27465
0.00059
0.31317
0.27918
0.03525
0.29472
0.34982
0.03497
0.29772
0.34776
0.28625
0.43895
0.28699
0.43478
0.01629
0.23479
0.22037
0.01560
0.23092
0.22311
0.00486
0.13626
0.12610
0.00459
0.13817
0.12452
-0.03477
-0.04530
-0.01779
-0.03359
-0.04427
-0.01821
-0.00253
0.03496
0.04827
-0.00249
0.03580
0.04813
-0.03561
-0.09603
-0.08007
-0.03491
-0.09509
-0.08075
-0.00495
-0.00673
-0.01213
-0.00566
-0.00580
-0.01178
-0.00045
-0.00003
0.26630
0.26532
-0.00094
0.04710
0.27827
0.36408
-0.00004
0.04534
0.27934
0.36691
0.27052
0.35837
0.27282
0.35666
0.07500
0.29799
0.42648
0.07451
0.29815
0.42489
0.04826
0.31732
0.45714
0.04838
0.31689
0.45436
0.02889
0.00636
0.20770
0.21774
0.02870
0.00563
0.20447
0.21840
0.28355
0.36167
0.28627
0.36390
0.00083
0.11986
0.10840
-0.00052
0.12032
0.10849
-0.13224
-0.10429
-0.13142
-0.10503
-0.05374
-0.00089
-0.07894
-0.05386
-0.00208
-0.07777
0.00113
0.02794
0.02510
0.00092
0.02815
0.02515
-0.00864
-0.01226
-0.04934
-0.00880
-0.01138
-0.04965
-0.01442
-0.08145
-0.11786
-0.01364
-0.08143
-0.11823
-0.00142
0.00145
0.39535
0.27297
0.00048
0.27154
0.39705
0.00028
0.39490
0.27134
-0.00050
0.27347
0.39276
0.04768
0.40897
0.27444
0.04953
0.27556
0.40773
0.07286
0.42549
0.25193
0.07311
0.25157
0.42614
0.04508
0.48288
0.31182
0.04361
0.30789
0.48717
0.01483
0.33651
0.25844
0.01503
0.26174
0.33456
0.00079
0.19423
0.17681
0.00075
0.17550
0.19471
0.00086
0.07858
0.09241
0.00073
0.09219
0.07840
-0.10282
-0.12494
-0.10112
-0.12494
-0.03702
-0.03568
-0.09228
-0.03483
-0.03893
-0.09228
-0.00457
0.00871
0.00056
0.00903
-0.00574
0.00056
-0.03893
-0.10112
-0.11823
-0.00574
-0.03483
-0.04965
-0.00639
0.00903
0.07840
0.00711
0.09219
0.19471
0.02956
0.17550
0.33456
0.06565
0.26174
0.48717
0.07599
0.30789
0.42614
0.06181
0.25157
0.40773
-0.00005
0.27556
0.39276
-0.00119
0.27347
0.39705
-0.00119
0.27154
0.27297
-0.00005
0.27134
0.39535
0.06181
0.27444
0.39490
0.07599
0.25193
0.40897
0.06565
0.31182
0.42549
0.02956
0.25844
0.48288
0.00711
0.17681
0.33651
-0.00639
0.09241
0.19423
0.00871
0.07858
-0.00457
-0.03568
-0.04934
-0.03702
-0.10282
-0.11786
0.00073
-0.01138
0.02515
0.00086
-0.01226
0.02510
-0.08143
-0.00880
-0.07777
-0.08145
-0.00864
-0.07894
-0.01364
-0.10503
-0.01442
-0.10429
0.00075
0.02815
0.10849
0.00079
0.02794
0.10840
0.01503
0.12032
0.21840
0.01483
0.11986
0.21774
0.04361
0.36390
0.20447
0.04508
0.36167
0.20770
0.07311
0.28627
0.45436
0.07286
0.28355
0.45714
0.04953
0.31689
0.42489
0.04768
0.31732
0.42648
-0.00050
0.29815
0.36691
0.00028
0.29799
0.36408
0.00048
0.35666
0.27934
0.00145
0.35837
0.27827
-0.00142
0.27282
0.26532
0.27052
0.26630
-0.00208
-0.13142
-0.08075
-0.00089
-0.13224
-0.08007
0.00092
-0.05386
-0.01178
0.00113
-0.05374
-0.01213
-0.00052
-0.00580
0.04813
0.00083
-0.00673
0.04827
-0.00566
-0.09509
-0.01821
-0.00495
-0.09603
-0.01779
-0.03491
-0.05248
-0.03561
-0.05400
0.00563
0.03580
0.12452
0.00636
0.03496
0.12610
0.02870
0.04838
0.22311
0.34776
0.02889
0.04826
0.22037
0.34982
0.13817
0.23092
0.13626
0.23479
0.07451
0.29772
0.47903
0.07500
0.29472
0.47883
0.04534
0.43478
0.30574
0.04710
0.43895
0.30504
-0.00004
-0.00003
0.27918
0.24804
-0.00094
-0.00045
0.27465
0.24948
0.28699
0.31317
0.28625
0.31753
0.25529
0.25612
-0.00249
-0.04427
0.01805
-0.00253
-0.04530
0.01823
-0.03359
-0.14012
-0.01904
-0.03477
-0.13876
-0.02011
0.00459
0.00220
0.07147
0.00486
0.00124
0.07119
-0.01463
-0.09434
-0.00053
-0.01443
-0.09491
-0.00108
0.01560
0.04043
0.15135
0.01629
0.04050
0.15046
0.03497
0.13664
0.23685
0.03525
0.13728
0.23585
0.00059
0.04274
0.26490
0.28552
0.00067
0.04167
0.26468
0.28826
0.05409
0.21471
0.35758
0.05603
0.21461
0.35617
0.00100
0.25938
0.21853
0.00149
0.26184
0.21653
0.27876
0.46673
0.27903
0.46909
-0.07482
-0.01676
-0.07600
-0.01747
0.00175
0.25157
0.22559
0.24865
0.22386
-0.00419
-0.04977
0.02874
-0.00315
-0.05088
0.02832
-0.03856
-0.13602
-0.00901
-0.03924
-0.13446
-0.00927
0.00753
-0.00118
0.08619
0.00824
-0.00191
0.08570
-0.01743
-0.09254
0.01062
-0.01670
-0.09295
0.01102
0.01732
0.03583
0.15038
0.01720
0.03633
0.15029
0.03921
0.11583
0.23634
0.04011
0.11596
0.23750
0.03950
0.00020
0.26140
0.21270
0.03953
0.00043
0.26443
0.21027
0.05035
0.17934
0.32508
0.05060
0.18010
0.32416
0.42759
0.23732
0.42536
0.23675
0.00245
0.23685
0.21741
0.00240
0.23829
0.21701
0.23180
0.23141
-0.07687
-0.02395
-0.07777
-0.02270
-0.00371
-0.04846
0.04981
-0.00268
-0.04994
0.04895
-0.04336
-0.13868
-0.01078
-0.04262
-0.13796
-0.01065
0.00953
-0.00571
0.09700
0.00986
-0.00669
0.09506
-0.02185
-0.09867
0.01497
-0.02196
-0.09814
0.01242
0.02012
0.02728
0.16253
0.02093
0.02624
0.16261
0.03589
0.09284
0.22643
0.03564
0.09097
0.22567
0.04907
0.03886
0.18041
0.30881
0.05096
0.03813
0.17752
0.31231
0.13872
0.31391
0.13892
0.31774
0.00180
0.23704
0.17481
0.00114
0.23331
0.17594
0.00079
0.20340
0.19742
0.20507
0.19815
-0.07904
-0.08145
-0.00477
-0.05935
0.04131
-0.00476
-0.06008
0.04165
-0.04296
-0.02538
-0.04230
-0.02376
0.01030
-0.02176
0.09246
0.01220
-0.02121
0.09331
0.01618
0.00555
0.14007
0.01655
0.00516
0.14012
0.03621
0.06253
0.20612
0.03652
0.06232
0.20719
0.02962
0.10132
0.24336
0.02926
0.10095
0.24207
-0.01962
-0.10645
0.00050
-0.01848
-0.10564
-0.00007
-0.00081
0.19468
0.14520
-0.00003
0.19619
0.14574
-0.00004
0.21354
0.17223
-0.00003
0.21605
0.17292
0.18147
0.18100
-0.00449
-0.06813
0.04322
-0.00452
-0.07001
0.04079
-0.03696
-0.05592
-0.04029
-0.05742
0.01345
-0.03536
0.08101
0.01354
-0.03554
0.07999
0.01395
-0.01403
0.13352
0.01417
-0.01429
0.13338
0.03879
0.02833
0.16595
0.03880
0.02884
0.16573
-0.02407
-0.12470
-0.01687
-0.02383
-0.12546
-0.01759
0.03200
0.05278
0.19724
0.03175
0.05224
0.19623
0.00107
0.17575
0.13705
-0.00047
0.17459
0.13647
0.00003
0.17919
0.14924
0.18053
0.14788
-0.00189
-0.08877
0.00227
-0.00110
-0.08924
0.00151
0.01233
-0.05869
0.04596
0.01188
-0.05970
0.04585
-0.04922
-0.05157
0.02396
-0.03709
0.08668
0.02329
-0.03680
0.08674
0.02182
-0.01376
0.11898
0.02209
-0.01337
0.11826
-0.01501
-0.06026
-0.01572
-0.05835
0.00510
0.07982
0.10593
0.00451
0.08063
0.10474
0.00097
0.12494
0.11522
0.00133
0.12394
0.11464
0.12437
0.12518
-0.00246
-0.11383
-0.02922
-0.00208
-0.11449
-0.02955
-0.00518
-0.08856
0.01331
-0.00572
-0.08965
0.01273
0.01843
-0.06119
0.06322
0.01869
-0.06099
0.06274
0.02064
-0.03703
0.08575
0.02052
-0.03727
0.08529
0.00490
0.08958
0.07776
0.00570
0.09213
0.07820
0.00318
0.09264
0.09088
0.09259
0.09048
-0.02620
-0.09389
-0.02607
-0.09277
-0.02193
-0.13931
-0.07067
-0.02224
-0.13925
-0.06931
-0.01491
-0.11467
-0.02540
-0.01489
-0.11516
-0.02373
0.00932
0.00210
-0.08743
0.01027
0.00145
-0.08828
0.00881
0.00099
0.04780
0.00838
0.00195
0.04562
0.00784
0.05816
0.05265
0.00676
0.05848
0.05157
0.05705
0.05736
-0.04866
-0.04862
-0.03612
-0.04075
-0.00665
0.01103
-0.00969
-0.11958
-0.00650
0.01117
-0.00838
-0.11980
-0.08350
-0.08206
0.01231
-0.00500
0.00338
0.01292
-0.00458
0.00294
0.01148
0.00542
0.00636
0.00563
0.00568
-0.01806
0.02011
-0.04711
-0.01641
0.01900
-0.04873
0.01430
-0.06612
-0.04352
0.01447
-0.06758
-0.04230
-0.05328
-0.05297
0.00891
0.00886
0.01272
0.00995
0.00785
0.02007
0.02177
0.00812
0.02054
0.02161
0.01516
0.02015
0.01478
0.01941
0.01344
0.01389
0.05305
0.05322
0.01805
0.05748
0.04485
0.01844
0.05708
0.04480
0.01071
0.00823
-0.00301
0.01138
0.00833
-0.00243
0.06469
0.05034
0.06530
0.05039
0.01179
0.01329
0.07994
0.06887
0.01332
0.07980
0.06886
0.01402
0.08894
0.06160
0.01430
0.08842
0.06113
0.02133
-0.01737
-0.02541
0.06539
0.02136
-0.01540
-0.02504
0.06380
0.08366
0.08801
0.08288
0.08790
-0.03133
-0.05835
0.01013
-0.03172
-0.05717
0.01117
-0.08206
-0.02105
-0.08137
-0.01997
0.00854
0.00794
0.08978
0.09044
0.00888
0.10314
0.08303
0.00904
0.10233
0.08390
0.02535
0.10648
0.07010
0.02603
0.10612
0.07058
-0.00072
0.07711
0.14198
0.00029
0.07618
0.14062
-0.01049
0.00280
0.10224
-0.00950
0.00310
0.10223
-0.01406
-0.02655
0.05149
-0.01385
-0.02605
0.05096
-0.05294
0.02098
-0.05271
0.02088
0.00450
0.00451
0.10874
0.10244
0.00446
0.10840
0.10314
0.00925
0.11795
0.08750
0.00900
0.11784
0.08708
0.02407
0.11983
0.17275
0.02431
0.11964
0.17251
0.00891
0.02810
0.18711
0.00921
0.02784
0.18685
0.00931
0.03093
0.13196
0.00958
0.03108
0.13225
-0.00688
0.00893
0.08817
-0.00649
0.00932
0.08860
0.00164
0.00179
0.13320
0.13398
0.00341
0.15506
0.11725
0.00268
0.15438
0.11741
0.03245
0.16369
0.09835
0.03280
0.16238
0.09924
-0.03499
-0.01803
0.05260
-0.03389
-0.01742
0.05199
0.03531
0.16361
0.25420
0.03540
0.16274
0.25422
0.02427
0.08637
0.20938
0.02421
0.08598
0.20933
-0.05974
0.00898
-0.05934
0.00886
0.01065
0.03967
0.15816
0.01057
0.03952
0.15848
-0.00921
0.02096
0.10761
-0.00883
0.02095
0.10759
-0.00050
0.00007
0.15621
0.14084
-0.00027
0.15523
0.14077
0.00261
0.17639
0.12468
0.00244
0.17564
0.12478
0.03508
0.18451
0.27129
0.03434
0.18408
0.27191
-0.02791
-0.00593
0.06497
-0.02793
-0.00538
0.06615
0.03099
0.13725
0.30086
0.03093
0.13624
0.30177
0.02567
0.11423
0.23084
0.02565
0.11342
0.23131
0.01011
0.06182
0.16553
0.01003
0.06105
0.16594
-0.04402
0.02526
-0.04247
0.02581
-0.00625
0.03972
0.10859
-0.00637
0.04014
0.10980
-0.00053
-0.00070
0.16976
0.16991
-0.00158
0.18535
0.15436
-0.00140
0.18501
0.15459
0.04334
0.19973
0.13478
0.04322
0.19865
0.13533
-0.02664
0.01145
0.05814
-0.02588
0.01153
0.05787
0.04546
0.40202
0.22114
0.04467
0.40220
0.22133
0.03370
0.18161
0.31721
0.03368
0.18111
0.31700
0.02583
0.14901
0.23201
0.02577
0.14857
0.23207
0.00989
0.07875
0.15800
0.00942
0.07843
0.15841
-0.06374
-0.02928
0.02662
-0.06291
-0.02880
0.02638
-0.00429
0.05479
0.09260
-0.00483
0.05454
0.09288
-0.07442
0.00248
-0.07316
0.00208
-0.00018
-0.00159
0.19996
0.18974
-0.00153
0.19989
0.18985
-0.00225
0.21475
0.17519
-0.00240
0.21463
0.17497
0.04431
0.05408
0.23849
0.44053
0.04385
0.05342
0.23839
0.43925
0.38198
0.23009
0.38123
0.22962
0.03669
0.21304
0.32361
0.03634
0.21271
0.32355
0.02435
0.17329
0.22512
0.02371
0.17325
0.22587
-0.02756
0.02355
0.04793
-0.02693
0.02408
0.04822
0.00918
0.09302
0.13771
0.00871
0.09287
0.13875
-0.05918
-0.02148
0.02053
-0.05843
-0.02139
0.01994
-0.00412
0.06471
0.07298
-0.00467
0.06527
0.07359
-0.07005
0.00074
-0.06995
-0.00009
-0.00096
-0.00093
0.21045
0.21028
-0.00145
0.22876
0.19630
-0.00171
0.22858
0.19623
0.07452
0.04704
0.58736
0.26285
0.07384
0.04709
0.58834
0.26226
0.05554
0.28438
0.44766
0.05533
0.28368
0.44804
0.24287
0.24434
0.24204
0.24417
0.03704
0.25356
0.31324
0.03660
0.25284
0.31304
0.02130
0.19973
0.20235
0.02081
0.20016
0.20257
-0.02422
0.02838
0.03116
-0.02347
0.02844
0.03100
0.00683
0.09085
0.11016
0.00685
0.09117
0.10969
-0.05993
-0.02000
0.01266
-0.05992
-0.02017
0.01275
-0.00027
0.06167
0.04486
-0.00086
0.06193
0.04503
-0.00099
-0.00085
0.24377
0.22987
-0.00112
0.24394
0.23035
-0.06785
-0.00494
-0.06779
-0.00510
0.07900
0.05777
0.27413
0.54514
0.07854
0.05728
0.27197
0.54526
-0.00030
0.28895
0.25728
-0.00018
0.28893
0.25694
0.05371
0.30159
0.43841
0.05284
0.30096
0.43798
0.27128
0.46903
0.27056
0.47009
0.03160
0.29588
0.26124
0.03109
0.29701
0.26013
0.01359
0.19807
0.17710
0.01371
0.19718
0.17759
-0.01885
0.02219
0.01263
-0.01868
0.02304
0.01277
0.00645
0.08627
0.08163
0.00633
0.08545
0.08215
-0.03940
-0.02829
-0.01859
-0.03907
-0.02825
-0.01857
0.00679
0.05264
0.02138
0.00595
0.05285
0.02214
-0.00166
-0.00193
0.25283
0.25345
-0.00198
0.07194
0.26779
0.35101
-0.00215
0.07292
0.26831
0.34846
0.26384
0.35542
0.26416
0.35476
0.10037
0.29588
0.40652
0.09911
0.29724
0.40597
0.07641
0.29570
0.49366
0.07581
0.29491
0.49544
0.04449
0.02112
0.25104
0.27369
0.04418
0.02135
0.25090
0.27320
0.31115
0.42652
0.31000
0.42707
0.00819
0.17940
0.15084
0.00798
0.17951
0.15060
-0.06615
-0.01373
-0.06603
-0.01333
0.00872
0.00948
-0.02963
0.00923
0.00991
-0.02913
0.01029
0.06624
0.06141
0.01010
0.06648
0.06120
0.01479
0.03149
0.00062
0.01350
0.03211
0.00054
-0.01817
-0.03086
-0.06611
-0.01776
-0.03092
-0.06576
-0.00217
-0.00205
0.39573
0.26536
-0.00218
0.26614
0.39421
-0.00072
0.39822
0.26501
-0.00070
0.26607
0.39641
0.07470
0.41623
0.26273
0.07393
0.26340
0.41532
0.10531
0.40190
0.31490
0.10559
0.31454
0.40103
0.06898
0.50820
0.32170
0.06872
0.32113
0.50809
0.03287
0.40187
0.29592
0.03276
0.29602
0.40216
0.00878
0.25338
0.21584
0.00852
0.21542
0.25400
0.00902
0.13371
0.14086
0.00879
0.14049
0.13378
-0.04525
-0.01388
-0.04595
-0.01388
-0.00111
0.00480
-0.04555
0.00583
-0.00165
-0.04555
0.01781
0.04004
0.05934
0.04027
0.01740
0.05934
-0.00165
-0.04595
-0.06576
0.01740
0.00583
0.00054
0.00272
0.04027
0.13378
0.01941
0.14049
0.25400
0.05702
0.21542
0.40216
0.10187
0.29602
0.50809
0.07159
0.32113
0.40103
0.00049
0.31454
0.41532
-0.00118
0.26340
0.39641
-0.00139
0.26607
0.39421
-0.00139
0.26614
0.26536
-0.00118
0.26501
0.39573
0.00049
0.26273
0.39822
0.07159
0.31490
0.41623
0.10187
0.32170
0.40190
0.05702
0.29592
0.50820
0.01941
0.21584
0.40187
0.00272
0.14086
0.25338
0.04004
0.13371
0.01781
0.00480
0.00062
-0.00111
-0.04525
-0.06611
0.00879
0.03211
0.06120
0.00902
0.03149
0.06141
-0.03092
0.01350
-0.02913
-0.03086
0.01479
-0.02963
-0.01776
-0.01333
-0.01817
-0.01373
0.00852
0.06648
0.15060
0.00878
0.06624
0.15084
0.03276
0.17951
0.27320
0.03287
0.17940
0.27369
0.06872
0.42707
0.25090
0.06898
0.42652
0.25104
0.10559
0.31000
0.49544
0.10531
0.31115
0.49366
0.07393
0.29491
0.40597
0.07470
0.29570
0.40652
-0.00070
0.29724
0.34846
-0.00072
0.29588
0.35101
-0.00218
0.35476
0.26831
-0.00205
0.35542
0.26779
-0.00217
0.26416
0.25345
0.26384
0.25283
0.00991
-0.06603
-0.01857
0.00948
-0.06615
-0.01859
0.01010
0.00923
0.02214
0.01029
0.00872
0.02138
0.00798
0.05285
0.08215
0.00819
0.05264
0.08163
0.00595
-0.02825
0.01277
0.00679
-0.02829
0.01263
-0.03907
-0.00510
-0.03940
-0.00494
0.02135
0.08545
0.17759
0.02112
0.08627
0.17710
0.04418
0.07581
0.26013
0.43798
0.04449
0.07641
0.26124
0.43841
0.19718
0.29701
0.19807
0.29588
0.09911
0.30096
0.54526
0.10037
0.30159
0.54514
0.07292
0.47009
0.27197
0.07194
0.46903
0.27413
-0.00215
-0.00193
0.25694
0.23035
-0.00198
-0.00166
0.25728
0.22987
0.27056
0.28893
0.27128
0.28895
0.24394
0.24377
0.00633
0.02304
0.04503
0.00645
0.02219
0.04486
-0.01868
-0.06779
0.01275
-0.01885
-0.06785
0.01266
0.01371
0.06193
0.10969
0.01359
0.06167
0.11016
-0.00086
-0.02017
0.03100
-0.00027
-0.02000
0.03116
0.03109
0.09117
0.20257
0.03160
0.09085
0.20235
0.05284
0.20016
0.31304
0.05371
0.19973
0.31324
-0.00018
0.05728
0.24417
0.26226
-0.00030
0.05777
0.24434
0.26285
0.07854
0.25284
0.44804
0.07900
0.25356
0.44766
-0.00112
0.24204
0.19623
-0.00085
0.24287
0.19630
0.28368
0.58834
0.28438
0.58736
-0.05992
-0.00009
-0.05993
0.00074
-0.00099
0.22858
0.21028
0.22876
0.21045
0.00685
0.02844
0.07359
0.00683
0.02838
0.07298
-0.02347
-0.06995
0.01994
-0.02422
-0.07005
0.02053
0.02081
0.06527
0.13875
0.02130
0.06471
0.13771
-0.00467
-0.02139
0.04822
-0.00412
-0.02148
0.04793
0.03660
0.09287
0.22587
0.03704
0.09302
0.22512
0.05533
0.17325
0.32355
0.05554
0.17329
0.32361
0.04709
-0.00171
0.22962
0.17497
0.04704
-0.00145
0.23009
0.17519
0.07384
0.21271
0.43925
0.07452
0.21304
0.44053
0.38123
0.23839
0.38198
0.23849
-0.00093
0.21463
0.18985
-0.00096
0.21475
0.18974
0.19989
0.19996
-0.05843
0.00208
-0.05918
0.00248
0.00871
0.02408
0.09288
0.00918
0.02355
0.09260
-0.02693
-0.07316
0.02638
-0.02756
-0.07442
0.02662
0.02371
0.05454
0.15841
0.02435
0.05479
0.15800
-0.00483
-0.02880
0.05787
-0.00429
-0.02928
0.05814
0.03634
0.07843
0.23207
0.03669
0.07875
0.23201
0.05342
0.14857
0.31700
0.05408
0.14901
0.31721
0.04385
-0.00240
0.22133
0.13533
0.04431
-0.00225
0.22114
0.13478
0.18111
0.40220
0.18161
0.40202
-0.00153
0.19865
0.15459
-0.00159
0.19973
0.15436
-0.00018
0.18501
0.16991
0.18535
0.16976
-0.06291
-0.06374
0.00942
0.01153
0.10980
0.00989
0.01145
0.10859
-0.02588
0.02581
-0.02664
0.02526
0.02577
0.04014
0.16594
0.02583
0.03972
0.16553
0.03368
0.06105
0.23131
0.03370
0.06182
0.23084
0.04467
0.11342
0.30177
0.04546
0.11423
0.30086
0.04322
0.13624
0.27191
0.04334
0.13725
0.27129
-0.00637
-0.04247
0.06615
-0.00625
-0.04402
0.06497
-0.00140
0.18408
0.12478
-0.00158
0.18451
0.12468
-0.00070
0.17564
0.14077
-0.00053
0.17639
0.14084
0.15523
0.15621
0.01003
-0.00538
0.10759
0.01011
-0.00593
0.10761
-0.02793
0.00886
-0.02791
0.00898
0.02565
0.02095
0.15848
0.02567
0.02096