# vtk DataFile Version 3.0
Point representing Sub_cellular elem model
ASCII

DATASET UNSTRUCTURED_GRID
POINTS 3657 float
-52.36883 -3.01837 53.49951 
-52.34057 3.26910 53.54081 
-51.97357 -9.26594 53.11745 
-51.96043 9.56892 53.20458 
-49.14259 0.06789 57.40837 
-48.81320 -6.08408 57.09394 
-48.84191 6.24514 57.07799 
-49.35954 -16.81550 53.45559 
-49.21971 16.98531 53.55539 
-48.58402 -12.10321 56.57997 
-48.43597 12.32734 56.72779 
-45.30491 -3.01440 60.29812 
-45.33526 3.11937 60.29098 
-45.05627 -9.14590 60.00621 
-45.03766 9.18324 60.04339 
-45.67593 -19.89370 56.87368 
-45.57899 20.05497 56.91548 
-44.85787 -14.95138 59.07055 
-44.76007 15.02703 59.17207 
-46.42398 -24.25134 53.23303 
-46.34102 24.66835 53.56214 
-46.56395 -29.00280 49.76927 
-46.39243 29.41528 50.00158 
-41.79244 -0.00349 63.01623 
-41.73891 -6.11753 63.02406 
-41.72247 6.12961 63.05162 
-41.28112 -11.96984 62.39011 
-41.23737 12.01488 62.48363 
-41.19880 -17.87114 61.56560 
-41.14044 17.88430 61.66347 
-41.92356 -22.79403 59.01795 
-41.83932 22.92128 59.16820 
-42.81310 -27.65565 56.39636 
-42.65945 27.91820 56.57190 
-42.25068 -33.18332 53.45286 
-41.94918 33.49869 53.50966 
-38.13763 -3.01844 65.35464 
-38.09972 3.06207 65.38318 
-37.83253 -8.95683 65.11181 
-37.79800 8.92940 65.11694 
-37.42640 -14.63192 64.55377 
-37.40170 14.65401 64.60344 
-37.34329 -20.41813 63.36311 
-37.30628 20.51158 63.43234 
-38.14821 -25.41103 61.23380 
-38.01151 25.55664 61.37125 
-37.88924 -30.98504 58.89277 
-37.73839 31.12283 59.07014 
-34.71029 0.01352 67.67045 
-34.45388 -5.84443 67.38743 
-34.36962 5.84740 67.43579 
-33.97272 -11.71070 67.28738 
-33.96720 11.72850 67.31267 
-37.31283 -36.45794 56.17951 
-37.12907 36.65064 56.51154 
-33.64447 -17.39735 66.37125 
-33.66295 17.38936 66.41251 
-33.64158 -23.02421 65.19063 
-33.57116 23.03989 65.29723 
-36.81550 -41.09236 51.79163 
-36.64856 41.49524 52.19544 
-33.40320 -28.48910 63.19080 
-33.23561 28.55017 63.36672 
-33.00582 -34.13044 61.06120 
-32.83199 34.17621 61.26369 
-30.29526 -3.11490 69.71571 
-30.25043 3.06011 69.74363 
-29.84209 -8.97277 69.47693 
-29.85154 9.00285 69.53056 
-29.24969 -14.65906 69.07333 
-29.22356 14.63529 69.12040 
-32.27710 -39.44818 57.74024 
-32.13200 39.56012 57.93057 
-29.10908 -20.40261 68.06239 
-29.08650 20.32624 68.13486 
-29.70662 -25.41016 66.31428 
-29.60349 25.37054 66.44908 
-29.27560 -30.95854 64.36192 
-29.14789 30.98939 64.49306 
-31.77017 -44.46415 54.10322 
-31.33382 44.73121 54.44851 
-28.79367 -36.43916 61.86371 
-28.60234 36.52369 61.97731 
-25.82294 -0.01291 71.69356 
-25.84018 -6.23082 71.71702 
-25.80870 6.20953 71.74037 
-25.05975 -12.16286 71.22062 
-24.97716 12.09808 71.23692 
-27.99702 -41.80472 58.74648 
-27.82655 41.86830 58.91512 
-24.80325 -17.82267 70.62880 
-24.74920 17.74174 70.69969 
-25.18640 -22.79168 69.09976 
-25.12369 22.76659 69.18265 
-25.70941 -27.85263 67.47695 
-25.63332 27.87779 67.56267 
-25.14712 -33.29899 65.18926 
-25.06599 33.34300 65.32184 
-27.08644 -46.94026 54.79775 
-26.80512 47.06886 54.86590 
-24.52985 -38.84868 62.74114 
-24.37059 38.92433 62.85249 
-26.38596 -50.86293 49.36513 
-26.02149 51.19787 49.55574 
-21.38568 -3.13989 73.34662 
-21.31497 3.11992 73.32706 
-21.04769 -9.29501 73.01085 
-21.03362 9.31860 73.02242 
-20.87327 -20.08510 71.39335 
-20.85545 20.07310 71.46600 
-20.51609 -15.01236 72.45444 
-20.42648 15.03369 72.50634 
-21.27153 -25.15539 69.91248 
-21.17274 25.15912 69.95732 
-21.58635 -30.11269 67.99728 
-21.51608 30.16924 68.05554 
-23.46978 -44.20754 59.23354 
-23.28768 44.32552 59.30986 
-20.97226 -35.56283 65.70550 
-20.81613 35.63472 65.78501 
-22.56442 -49.47202 54.95406 
-22.30719 49.59454 55.09026 
-19.99522 -41.09268 62.79440 
-19.81720 41.12282 62.91701 
-21.36859 -53.64169 49.65774 
-20.96286 53.84533 49.85932 
-16.95764 -0.01601 74.92025 
-16.74974 -6.21570 74.56241 
-16.76963 6.18587 74.56039 
-16.71075 -17.41043 73.21947 
-16.61430 17.39613 73.27040 
-16.99801 -22.51030 72.14417 
-16.94777 22.49900 72.19077 
-16.53979 -12.33713 74.18068 
-16.46878 12.28926 74.21560 
-17.19814 -27.45831 70.38504 
-17.16945 27.45721 70.43588 
-17.50204 -32.40342 68.47322 
-17.42684 32.45461 68.52274 
-18.86650 -46.46420 59.22000 
-18.73966 46.49603 59.32189 
-16.54387 -37.82641 65.83516 
-16.34476 37.85369 65.92514 
-17.70105 -51.44042 54.84012 
-17.45001 51.55083 54.93621 
-15.40131 -43.35510 62.99355 
-15.24270 43.40737 63.05956 
-12.57168 -3.17423 75.68686 
-12.52884 3.14587 75.73612 
-16.31235 -55.80573 49.66223 
-15.89399 56.01877 49.89710 
-12.66300 -19.74055 73.74922 
-12.63007 19.74172 73.77308 
-12.38424 -9.41473 75.32797 
-12.37541 9.33111 75.33635 
-12.82605 -24.75787 72.33668 
-12.75157 24.71165 72.38693 
-12.39873 -14.66071 74.71591 
-12.32845 14.60013 74.74975 
-12.93914 -29.74157 70.53424 
-12.89855 29.68850 70.60189 
-13.33656 -34.46464 68.32002 
-13.21048 34.43655 68.40364 
-14.12297 -48.48680 59.14961 
-14.01833 48.54001 59.20759 
-12.11997 -39.88664 65.67179 
-12.04211 39.91373 65.66883 
-12.97380 -53.51172 54.83960 
-12.65361 53.61215 54.90266 
-10.91993 -45.22895 62.40561 
-10.68118 45.29549 62.51230 
-8.34369 -0.00322 76.47281 
-8.27945 -11.68459 75.80649 
-8.24648 11.67498 75.79270 
-8.29235 -6.35195 76.44416 
-8.22579 6.33491 76.45747 
-8.41054 -16.84306 75.18064 
-8.36160 16.83739 75.19953 
-8.56558 -21.85790 73.89238 
-8.46017 21.86738 73.91826 
-8.74181 -31.66261 70.38504 
-8.64235 31.72391 70.43192 
-8.56337 -26.94158 72.46658 
-8.49329 26.93607 72.49456 
-8.97988 -36.49188 68.24544 
-8.90801 36.58002 68.24147 
-10.33145 -57.10749 50.90548 
-9.87274 57.13648 50.87922 
-9.55582 -50.39065 58.63511 
-9.41956 50.39316 58.71702 
-7.72755 -41.79576 65.18651 
-7.57926 41.85167 65.20551 
-6.32819 -47.11001 62.12315 
-6.05557 47.19375 62.12332 
-6.70838 -54.04268 55.58074 
-6.44904 54.04623 55.64880 
-4.09316 -3.17351 76.91812 
-4.03860 3.20561 76.92593 
-4.15164 -8.59436 76.54433 
-4.10405 8.58431 76.54898 
-4.15842 -13.91754 75.94128 
-4.11662 13.88723 75.97816 
-4.26662 -18.93457 75.08392 
-4.22089 18.96138 75.08567 
-4.27554 -23.88056 73.78115 
-4.16514 23.92427 73.77982 
-4.29479 -28.71897 72.08916 
-4.25372 28.67184 72.08878 
-4.42660 -33.46500 69.99744 
-4.36837 33.48980 70.00507 
-4.57092 -38.25630 67.58840 
-4.47245 38.30836 67.58276 
-3.66856 -57.52550 51.96596 
-3.28980 57.55145 51.94657 
-3.33857 -50.70246 59.31065 
-3.12208 50.74173 59.23912 
-3.10092 -43.51528 64.61057 
-2.90972 43.54569 64.61342 
-0.12659 -54.33580 56.31233 
-0.11046 -47.23501 62.12433 
-0.06644 -39.93856 66.99118 
-0.02251 -35.14566 69.36600 
0.00360 -30.40841 71.66880 
-0.06264 -25.52370 73.37267 
-0.01851 -20.82864 74.89816 
-0.00766 -15.86086 75.80778 
-0.00755 -10.76392 76.62040 
-0.04764 -5.35069 76.96049 
0.00000 0.00000 77.26475 
0.04764 5.35069 76.96049 
0.00755 10.76392 76.62040 
0.00766 15.86086 75.80778 
0.01851 20.82864 74.89816 
0.06264 25.52370 73.37267 
-0.00360 30.40841 71.66880 
0.02251 35.14566 69.36600 
0.06644 39.93856 66.99118 
0.11046 47.23501 62.12433 
0.12659 54.33580 56.31233 
2.90972 -43.54569 64.61342 
3.10092 43.51528 64.61057 
3.12208 -50.74173 59.23912 
3.33857 50.70246 59.31065 
3.28980 -57.55145 51.94657 
3.66856 57.52550 51.96596 
4.47245 -38.30836 67.58276 
4.57092 38.25630 67.58840 
4.36837 -33.48980 70.00507 
4.42660 33.46500 69.99744 
4.25372 -28.67184 72.08878 
4.29479 28.71897 72.08916 
4.16514 -23.92427 73.77982 
4.27554 23.88056 73.78115 
4.22089 -18.96138 75.08567 
4.26662 18.93457 75.08392 
4.11662 -13.88723 75.97816 
4.15842 13.91754 75.94128 
4.10405 -8.58431 76.54898 
4.15164 8.59436 76.54433 
4.03860 -3.20561 76.92593 
4.09316 3.17351 76.91812 
6.44904 -54.04623 55.64880 
6.70838 54.04268 55.58074 
6.05557 -47.19375 62.12332 
6.32819 47.11001 62.12315 
7.57926 -41.85167 65.20551 
7.72755 41.79576 65.18651 
9.41956 -50.39316 58.71702 
9.55582 50.39065 58.63511 
9.87274 -57.13648 50.87922 
10.33145 57.10749 50.90548 
8.90801 -36.58002 68.24147 
8.97988 36.49188 68.24544 
8.49329 -26.93607 72.49456 
8.56337 26.94158 72.46658 
8.64235 -31.72391 70.43192 
8.74181 31.66261 70.38504 
8.46017 -21.86738 73.91826 
8.56558 21.85790 73.89238 
8.36160 -16.83739 75.19953 
8.41054 16.84306 75.18064 
8.22579 -6.33491 76.45747 
8.29235 6.35195 76.44416 
8.24648 -11.67498 75.79270 
8.27945 11.68459 75.80649 
8.34369 0.00322 76.47281 
10.68118 -45.29549 62.51230 
10.91993 45.22895 62.40561 
12.65361 -53.61215 54.90266 
12.97380 53.51172 54.83960 
12.04211 -39.91373 65.66883 
12.11997 39.88664 65.67179 
14.01833 -48.54001 59.20759 
14.12297 48.48680 59.14961 
13.21048 -34.43655 68.40364 
13.33656 34.46464 68.32002 
12.89855 -29.68850 70.60189 
12.93914 29.74157 70.53424 
12.32845 -14.60013 74.74975 
12.39873 14.66071 74.71591 
12.75157 -24.71165 72.38693 
12.82605 24.75787 72.33668 
12.37541 -9.33111 75.33635 
12.38424 9.41473 75.32797 
12.63007 -19.74172 73.77308 
12.66300 19.74055 73.74922 
15.89399 -56.01877 49.89710 
16.31235 55.80573 49.66223 
12.52884 -3.14587 75.73612 
12.57168 3.17423 75.68686 
15.24270 -43.40737 63.05956 
15.40131 43.35510 62.99355 
17.45001 -51.55083 54.93621 
17.70105 51.44042 54.84012 
16.34476 -37.85369 65.92514 
16.54387 37.82641 65.83516 
18.73966 -46.49603 59.32189 
18.86650 46.46420 59.22000 
17.42684 -32.45461 68.52274 
17.50204 32.40342 68.47322 
17.16945 -27.45721 70.43588 
17.19814 27.45831 70.38504 
16.46878 -12.28926 74.21560 
16.53979 12.33713 74.18068 
16.94777 -22.49900 72.19077 
16.99801 22.51030 72.14417 
16.61430 -17.39613 73.27040 
16.71075 17.41043 73.21947 
16.76963 -6.18587 74.56039 
16.74974 6.21570 74.56241 
16.95764 0.01601 74.92025 
20.96286 -53.84533 49.85932 
21.36859 53.64169 49.65774 
19.81720 -41.12282 62.91701 
19.99522 41.09268 62.79440 
22.30719 -49.59454 55.09026 
22.56442 49.47202 54.95406 
20.81613 -35.63472 65.78501 
20.97226 35.56283 65.70550 
23.28768 -44.32552 59.30986 
23.46978 44.20754 59.23354 
21.51608 -30.16924 68.05554 
21.58635 30.11269 67.99728 
21.17274 -25.15912 69.95732 
[...]
CELL_DATA 40900
SCALARS Strain double 1
LOOKUP_TABLE default
0.01080
0.00728
-0.06767
-0.05449
0.00886
-0.06668
-0.05921
-0.08287
-0.07494
-0.08081
-0.07143
0.00930
0.01001
0.01356
0.01268
0.00899
0.01254
0.00594
0.01200
0.01354
0.00619
-0.03650
-0.11888
-0.14467
-0.03869
-0.12136
-0.14453
0.00158
-0.03178
-0.00025
-0.03824
0.00332
0.00629
0.08320
0.07948
0.00339
0.08548
0.08135
-0.00104
0.09076
0.06660
-0.00003
0.09037
0.07103
-0.03231
-0.07722
-0.11357
-0.06100
-0.02895
-0.06778
-0.11178
-0.06274
0.01275
-0.01742
0.01104
-0.01998
-0.07551
-0.13987
-0.09692
-0.07493
-0.14016
-0.10291
-0.17228
-0.12524
-0.17232
-0.12859
-0.00085
0.00053
0.13493
0.13835
-0.00010
0.13712
0.11956
0.00084
0.13716
0.11844
0.00542
0.14573
0.12536
0.00306
0.13932
0.12430
-0.03493
-0.04661
0.06511
-0.03081
-0.04823
0.06727
-0.04781
-0.07151
-0.01331
-0.04246
-0.07318
-0.00992
-0.04536
-0.10396
-0.05156
-0.04185
-0.10281
-0.05424
-0.14220
-0.09521
-0.14071
-0.10023
-0.00561
-0.00046
0.19117
0.17352
-0.00365
0.18733
0.17631
0.01156
0.18480
0.17368
0.01310
0.18904
0.17573
0.01711
0.12625
0.17009
0.01942
0.12407
0.16783
-0.02282
-0.01694
0.09670
-0.02121
-0.01747
0.09667
-0.01841
-0.03911
0.04470
-0.01881
-0.04027
0.04456
-0.03722
-0.07092
-0.01493
-0.03549
-0.06905
-0.01546
-0.00651
-0.00765
0.22041
0.22464
-0.00288
0.27563
0.21435
-0.00238
0.27126
0.21319
0.01869
0.25632
0.33164
0.01707
0.25888
0.33415
-0.08386
-0.11584
-0.05116
-0.07728
-0.11532
-0.05330
0.01635
0.07550
0.24217
0.01814
0.07770
0.24362
0.00016
0.05114
0.17722
0.00250
0.04931
0.17848
-0.15215
-0.08590
-0.15347
-0.08264
-0.01131
-0.00953
0.09320
-0.01278
-0.01007
0.09241
-0.03605
-0.03828
0.02777
-0.03456
-0.03978
0.03304
-0.00739
-0.00858
0.28190
0.27475
-0.00460
0.27855
0.27355
0.03364
0.33642
0.23565
0.03249
0.33136
0.23545
0.04771
0.30198
0.40170
0.04550
0.30100
0.40460
-0.06827
-0.08803
-0.03324
-0.05988
-0.08610
-0.03267
0.00770
0.15115
0.31382
0.00802
0.15278
0.31608
0.00738
0.10199
0.18612
0.01004
0.09984
0.18607
-0.01468
0.01688
0.10390
-0.01220
0.01497
0.10056
-0.13138
-0.05299
-0.13633
-0.06324
-0.02853
-0.02107
0.02663
-0.03063
-0.02407
0.02458
-0.00526
-0.00512
0.30638
0.30751
-0.00435
0.31277
0.27584
-0.00612
0.30912
0.27361
0.02552
0.34876
0.56155
0.02396
0.34977
0.55807
-0.06448
-0.07726
-0.01448
-0.06095
-0.07783
-0.00999
0.04008
0.54806
0.27221
0.04172
0.53856
0.27765
0.01268
0.21686
0.33503
0.01408
0.21391
0.34020
0.00912
0.14471
0.22466
0.00774
0.14712
0.22526
-0.00934
0.04721
0.10226
-0.00766
0.04661
0.10987
-0.11754
-0.12962
-0.04068
-0.11299
-0.13164
-0.04211
-0.02745
-0.00151
0.03645
-0.02571
-0.00086
0.03772
-0.17149
-0.02879
-0.17355
-0.03251
-0.00370
-0.00370
0.37222
0.34508
-0.00181
0.36966
0.34250
0.05245
0.36741
0.32605
0.05372
0.36163
0.33423
0.06434
0.04173
0.37630
0.54372
0.06028
0.04360
0.38110
0.54935
0.81599
0.41160
0.82318
0.40320
0.02187
0.28851
0.36240
0.02290
0.28467
0.35541
0.00768
0.18206
0.19145
0.00839
0.18002
0.19218
-0.05168
-0.06888
-0.02063
-0.05214
-0.06523
-0.02475
-0.00193
0.05924
0.08567
-0.00420
0.05588
0.08792
-0.10677
-0.12110
-0.03747
-0.10358
-0.12195
-0.03710
-0.01650
0.00024
0.00068
-0.01735
0.00110
0.00143
-0.17133
-0.02717
-0.17548
-0.02665
-0.00086
-0.00082
0.34870
0.35708
-0.00432
0.38962
0.33755
-0.00522
0.40071
0.34331
0.06400
0.04949
0.90891
0.46990
0.06387
0.05059
0.89313
0.46082
0.05096
0.45387
0.61946
0.05043
0.45137
0.62631
0.40485
0.40936
0.39375
0.41031
0.01877
0.34586
0.35131
0.02047
0.34794
0.35415
0.00957
0.21514
0.19055
0.00889
0.21324
0.19458
-0.04832
-0.06873
-0.03812
-0.04455
-0.06811
-0.03763
0.00052
0.06230
0.06362
0.00052
0.06079
0.05991
-0.10044
-0.12851
-0.05681
-0.09760
-0.13013
-0.05318
-0.00948
0.00554
-0.01640
-0.01004
0.00495
-0.01334
0.00044
-0.00019
0.40259
0.39811
-0.00255
0.39509
0.39724
-0.17899
-0.07890
-0.18362
-0.07780
0.07181
0.04711
0.50563
0.92604
0.06787
0.05057
0.50629
0.93926
-0.00242
0.51804
0.43611
-0.00176
0.51141
0.44865
0.04490
0.48480
0.60148
0.04388
0.49178
0.59699
0.44959
0.77288
0.44471
0.75998
0.02177
0.34587
0.35942
0.02118
0.34447
0.36378
0.00628
0.21123
0.15172
0.00885
0.21034
0.14884
-0.03694
-0.06693
-0.06481
-0.03236
-0.06336
-0.06509
0.00282
0.05161
0.02250
0.00353
0.05052
0.02573
-0.04493
-0.13127
-0.12669
-0.04050
-0.13054
-0.12968
0.00620
-0.01162
-0.06155
0.00330
-0.01346
-0.05846
0.00016
0.00015
0.42149
0.42647
-0.00019
0.06859
0.43406
0.59613
0.00088
0.06659
0.43724
0.60608
0.42349
0.59358
0.42537
0.58861
0.10707
0.48001
0.77144
0.10713
0.47895
0.76829
0.06224
0.53133
0.90185
0.06157
0.52314
0.89662
0.03976
0.01045
0.33101
0.31351
0.04079
0.01193
0.32176
0.31270
0.46877
0.63466
0.47615
0.63815
0.00397
0.17524
0.12485
0.00231
0.17549
0.12663
-0.17302
-0.14230
-0.17273
-0.14519
-0.07348
0.00276
-0.13418
-0.07492
0.00466
-0.13010
0.00791
0.03918
-0.00477
0.00967
0.03770
-0.00302
-0.01441
-0.01828
-0.09355
-0.01511
-0.01716
-0.09551
-0.01436
-0.10814
-0.17271
-0.00901
-0.11184
-0.17324
-0.00022
0.00488
0.66032
0.41793
0.00255
0.40848
0.67229
-0.00068
0.67843
0.41646
-0.00195
0.42383
0.66971
0.06523
0.70403
0.42943
0.06995
0.42817
0.69961
0.09525
0.78163
0.39174
0.09638
0.38867
0.78518
0.06139
0.96476
0.53457
0.05746
0.51960
0.98268
0.02100
0.56950
0.41807
0.02318
0.43002
0.56026
0.00693
0.27626
0.26877
0.00794
0.26311
0.27637
0.00278
0.08300
0.12378
0.00256
0.12190
0.08422
-0.13350
-0.16693
-0.13264
-0.16693
-0.05060
-0.05599
-0.14701
-0.05258
-0.05478
-0.14701
-0.01215
0.00852
-0.02609
0.00814
-0.01334
-0.02609
-0.05478
-0.13264
-0.17324
-0.01334
-0.05258
-0.09551
-0.00163
0.00814
0.08422
0.01548
0.12190
0.27637
0.04200
0.26311
0.56026
0.09001
0.43002
0.98268
0.11380
0.51960
0.78518
0.09648
0.38867
0.69961
0.00353
0.42817
0.66971
-0.00012
0.42383
0.67229
-0.00012
0.40848
0.41793
0.00353
0.41646
0.66032
0.09648
0.42943
0.67843
0.11380
0.39174
0.70403
0.09001
0.53457
0.78163
0.04200
0.41807
0.96476
0.01548
0.26877
0.56950
-0.00163
0.12378
0.27626
0.00852
0.08300
-0.01215
-0.05599
-0.09355
-0.05060
-0.13350
-0.17271
0.00256
-0.01716
-0.00302
0.00278
-0.01828
-0.00477
-0.11184
-0.01511
-0.13010
-0.10814
-0.01441
-0.13418
-0.00901
-0.14519
-0.01436
-0.14230
0.00794
0.03770
0.12663
0.00693
0.03918
0.12485
0.02318
0.17549
0.31270
0.02100
0.17524
0.31351
0.05746
0.63815
0.32176
0.06139
0.63466
0.33101
0.09638
0.47615
0.89662
0.09525
0.46877
0.90185
0.06995
0.52314
0.76829
0.06523
0.53133
0.77144
-0.00195
0.47895
0.60608
-0.00068
0.48001
0.59613
0.00255
0.58861
0.43724
0.00488
0.59358
0.43406
-0.00022
0.42537
0.42647
0.42349
0.42149
0.00466
-0.17273
-0.12968
0.00276
-0.17302
-0.12669
0.00967
-0.07492
-0.05846
0.00791
-0.07348
-0.06155
0.00231
-0.01346
0.02573
0.00397
-0.01162
0.02250
0.00330
-0.13054
-0.06509
0.00620
-0.13127
-0.06481
-0.04050
-0.07780
-0.04493
-0.07890
0.01193
0.05052
0.14884
0.01045
0.05161
0.15172
0.04079
0.06157
0.36378
0.59699
0.03976
0.06224
0.35942
0.60148
0.21034
0.34447
0.21123
0.34587
0.10713
0.49178
0.93926
0.10707
0.48480
0.92604
0.06659
0.75998
0.50629
0.06859
0.77288
0.50563
0.00088
0.00015
0.44865
0.39724
-0.00019
0.00016
0.43611
0.39811
0.44471
0.51141
0.44959
0.51804
0.39509
0.40259
0.00353
-0.06336
-0.01334
0.00282
-0.06693
-0.01640
-0.03236
-0.18362
-0.05318
-0.03694
-0.17899
-0.05681
0.00885
0.00495
0.05991
0.00628
0.00554
0.06362
-0.01004
-0.13013
-0.03763
-0.00948
-0.12851
-0.03812
0.02118
0.06079
0.19458
0.02177
0.06230
0.19055
0.04388
0.21324
0.35415
0.04490
0.21514
0.35131
-0.00176
0.05057
0.41031
0.46082
-0.00242
0.04711
0.40936
0.46990
0.06787
0.34794
0.62631
0.07181
0.34586
0.61946
-0.00255
0.39375
0.34331
-0.00019
0.40485
0.33755
0.45137
0.89313
0.45387
0.90891
-0.09760
-0.02665
-0.10044
-0.02717
0.00044
0.40071
0.35708
0.38962
0.34870
0.00052
-0.06811
0.00143
0.00052
-0.06873
0.00068
-0.04455
-0.17548
-0.03710
-0.04832
-0.17133
-0.03747
0.00889
0.00110
0.08792
0.00957
0.00024
0.08567
-0.01735
-0.12195
-0.02475
-0.01650
-0.12110
-0.02063
0.02047
0.05588
0.19218
0.01877
0.05924
0.19145
0.05043
0.18002
0.35541
0.05096
0.18206
0.36240
0.05059
-0.00522
0.40320
0.33423
0.04949
-0.00432
0.41160
0.32605
0.06387
0.28467
0.54935
0.06400
0.28851
0.54372
0.82318
0.38110
0.81599
0.37630
-0.00082
0.36163
0.34250
-0.00086
0.36741
0.34508
0.36966
0.37222
-0.10358
-0.03251
-0.10677
-0.02879
-0.00420
-0.06523
0.03772
-0.00193
-0.06888
0.03645
-0.05214
-0.17355
-0.04211
-0.05168
-0.17149
-0.04068
0.00839
-0.00086
0.10987
0.00768
-0.00151
0.10226
-0.02571
-0.13164
-0.00999
-0.02745
-0.12962
-0.01448
0.02290
0.04661
0.22526
0.02187
0.04721
0.22466
0.04360
0.14712
0.34020
0.04173
0.14471
0.33503
0.06028
0.05372
0.27765
0.55807
0.06434
0.05245
0.27221
0.56155
0.21391
0.53856
0.21686
0.54806
-0.00181
0.34977
0.27361
-0.00370
0.34876
0.27584
-0.00370
0.30912
0.30751
0.31277
0.30638
-0.11299
-0.11754
-0.00766
-0.07783
0.02458
-0.00934
-0.07726
0.02663
-0.06095
-0.06324
-0.06448
-0.05299
0.00774
-0.02407
0.10056
0.00912
-0.02107
0.10390
0.01408
0.01497
0.18607
0.01268
0.01688
0.18612
0.04172
0.09984
0.31608
0.04008
0.10199
0.31382
0.02396
0.15278
0.40460
0.02552
0.15115
0.40170
-0.03063
-0.13633
-0.03267
-0.02853
-0.13138
-0.03324
-0.00612
0.30100
0.23545
-0.00435
0.30198
0.23565
-0.00512
0.33136
0.27355
-0.00526
0.33642
0.27475
0.27855
0.28190
-0.01220
-0.08610
0.03304
-0.01468
-0.08803
0.02777
-0.05988
-0.08264
-0.06827
-0.08590
0.01004
-0.03978
0.09241
0.00738
-0.03828
0.09320
0.00802
-0.01007
0.17848
0.00770
-0.00953
0.17722
0.04550
0.04931
0.24362
0.04771
0.05114
0.24217
-0.03456
-0.15347
-0.05330
-0.03605
-0.15215
-0.05116
0.03249
0.07770
0.33415
0.03364
0.07550
0.33164
-0.00460
0.25888
0.21319
-0.00858
0.25632
0.21435
-0.00739
0.27126
0.22464
0.27563
0.22041
-0.01278
-0.11532
-0.01546
-0.01131
-0.11584
-0.01493
0.00250
-0.06905
0.04456
0.00016
-0.07092
0.04470
-0.07728
-0.08386
0.01814
-0.04027
0.09667
0.01635
-0.03911
0.09670
0.01707
-0.01747
0.16783
0.01869
-0.01694
0.17009
-0.03549
-0.10023
-0.03722
-0.09521
-0.00238
0.12407
0.17573
-0.00288
0.12625
0.17368
-0.00765
0.18904
0.17631
-0.00651
0.18480
0.17352
0.18733
0.19117
-0.01881
-0.14071
-0.05424
-0.01841
-0.14220
-0.05156
-0.02121
-0.10281
-0.00992
-0.02282
-0.10396
-0.01331
0.01942
-0.07318
0.06727
0.01711
-0.07151
0.06511
0.01310
-0.04823
0.12430
0.01156
-0.04661
0.12536
-0.00365
0.13932
0.11844
-0.00046
0.14573
0.11956
-0.00561
0.13716
0.13835
0.13712
0.13493
-0.04185
-0.12859
-0.04536
-0.12524
-0.04246
-0.17232
-0.10291
-0.04781
-0.17228
-0.09692
-0.03081
-0.14016
-0.06274
-0.03493
-0.13987
-0.06100
0.00306
-0.01998
-0.11178
0.00542
-0.01742
-0.11357
0.00084
0.01104
0.07103
-0.00010
0.01275
0.06660
0.00053
0.09037
0.08135
-0.00085
0.09076
0.07948
0.08548
0.08320
-0.07493
-0.07551
-0.06778
-0.07722
-0.02895
-0.00003
-0.03824
-0.14453
-0.03231
-0.00104
-0.03178
-0.14467
-0.12136
-0.11888
0.00339
-0.00025
0.00619
0.00629
0.00158
0.00594
0.00332
0.01354
0.01268
0.01254
0.01356
-0.03869
0.01200
-0.07143
-0.03650
0.00899
-0.07494
0.01001
-0.08081
-0.05921
0.00930
-0.08287
-0.05449
-0.06668
-0.06767
0.00886
0.00728
0.01080
0.00977
0.00919
0.03297
0.03175
0.00929
0.03359
0.03195
0.02948
0.02508
0.02818
0.02349
0.00913
0.00895
0.08032
0.07985
0.01082
0.08612
0.06882
0.00991
0.08612
0.06935
-0.00017
-0.00800
0.01343
-0.00177
-0.00581
0.01433
0.09182
0.06141
0.09216
0.06271
0.00703
0.00706
0.11922
0.10438
0.00709
0.11880
0.10456
0.00809
0.12996
0.09160
0.00763
0.12866
0.09135
0.00428
-0.04498
-0.03403
0.07104
0.00661
-0.04418
-0.03317
0.07095
0.13301
0.13387
0.13075
0.13280
-0.04908
-0.07103
0.00438
-0.05075
-0.06953
0.00842
-0.10635
-0.03662
-0.10594
-0.03299
0.00365
0.00260
0.13361
0.13462
0.00309
0.15149
0.12539
0.00307
0.15013
0.12728
0.01862
0.16022
0.11137
0.02078
0.15898
0.11192
-0.01191
0.12358
0.20847
-0.01095
0.12277
0.20728
-0.03058
0.01597
0.13098
-0.02918
0.01655
0.13282
-0.02755
-0.02220
0.05909
-0.02804
-0.02199
0.06067
-0.06187
0.00846
-0.06224
0.00881
0.00007
-0.00114
0.15972
0.15363
-0.00104
0.15886
0.15522
0.00331
0.17360
0.13414
0.00352
0.17243
0.13409
0.01732
0.17734
0.28821
0.01729
0.17597
0.28936
-0.00548
0.05188
0.28342
-0.00394
0.05128
0.28523
-0.00654
0.06294
0.18702
-0.00557
0.06280
0.18928
-0.03068
0.02913
0.11796
-0.02937
0.02886
0.11896
-0.00343
-0.00283
0.19814
0.20010
-0.00280
0.23123
0.17588
-0.00268
0.22958
0.17655
0.03420
0.24297
0.15065
0.03417
0.24115
0.15198
-0.06340
-0.02174
0.04592
-0.06415
-0.02122
0.04474
0.03378
0.26453
0.43109
0.03466
0.26186
0.43216
0.01566
0.14271
0.32454
0.01553
0.14209
0.32572
-0.07249
0.00113
-0.07185
-0.00002
-0.00384
0.07566
0.22758
-0.00176
0.07440
0.22892
-0.02293
0.04248
0.13518
-0.02273
0.04271
0.13429
-0.00484
-0.00440
0.23374
0.21133
-0.00489
0.23167
0.21111
-0.00167
0.26312
0.18665
-0.00185
0.26093
0.18734
0.02901
0.27109
0.47634
0.02868
0.26960
0.47856
-0.04812
0.00419
0.06541
-0.05081
0.00564
0.06885
0.02589
0.22383
0.51059
0.02606
0.22146
0.51271
0.01798
0.19025
0.36224
0.01876
0.18827
0.36408
0.00187
0.10933
0.23529
0.00223
0.10715
0.23727
-0.05017
0.00660
-0.04866
0.01102
-0.02075
0.07360
0.13484
-0.01953
0.07375
0.13844
-0.00395
-0.00430
0.25703
0.25792
-0.00609
0.28052
0.23162
-0.00526
0.27887
0.23330
0.05633
0.29682
0.20183
0.05591
0.29390
0.20365
-0.05032
0.02768
0.05850
-0.04840
0.02741
0.05828
0.04994
0.75915
0.35821
0.04934
0.76262
0.35739
0.03286
0.29758
0.54200
0.03389
0.29608
0.54184
0.02183
0.24735
0.35767
0.02284
0.24514
0.35827
0.00314
0.13570
0.21765
0.00366
0.13386
0.21748
-0.09840
-0.04184
0.00850
-0.09706
-0.03974
0.01061
-0.01211
0.09467
0.10944
-0.01251
0.09358
0.10952
-0.09730
0.00187
-0.09534
0.00239
-0.00234
-0.00450
0.30536
0.28914
-0.00436
0.30489
0.29077
-0.00348
0.32731
0.26314
-0.00354
0.32610
0.26366
0.04461
0.06138
0.39743
0.83477
0.04382
0.06136
0.39532
0.83264
0.69151
0.34075
0.69146
0.33816
0.03937
0.35219
0.54911
0.03966
0.35056
0.55126
0.02275
0.28942
0.34342
0.02275
0.28817
0.34570
-0.04090
0.04165
0.04063
-0.03873
0.04220
0.04212
0.00722
0.15842
0.18310
0.00738
0.15760
0.18524
-0.08480
-0.02773
0.00751
-0.08475
-0.02655
0.00702
-0.00533
0.10915
0.07623
-0.00512
0.10918
0.07823
-0.09453
-0.00065
-0.09390
-0.00280
-0.00240
-0.00198
0.32208
0.32265
-0.00187
0.35271
0.29709
-0.00211
0.35026
0.29809
0.09616
0.07075
1.21636
0.41530
0.09579
0.07087
1.22386
0.41209
0.06675
0.46803
0.85106
0.06706
0.46628
0.85174
0.37308
0.36955
0.37034
0.37014
0.04344
0.42833
0.52578
0.04318
0.42489
0.52605
0.02202
0.33616
0.29851
0.02222
0.33534
0.29888
-0.03141
0.04930
0.01587
-0.03070
0.04899
0.01648
0.00793
0.15355
0.13353
0.00914
0.15287
0.13472
-0.08077
-0.02628
-0.00078
-0.08175
-0.02601
-0.00089
0.00412
0.10111
0.03353
0.00327
0.10150
0.03305
-0.00028
-0.00000
0.37601
0.35227
-0.00028
0.37565
0.35441
-0.09548
-0.00669
-0.09499
-0.00655
0.10401
0.07571
0.44056
1.12545
0.10425
0.07450
0.43707
1.12257
0.00046
0.45215
0.39540
0.00080
0.45330
0.39314
0.06745
0.50756
0.84140
0.06696
0.50468
0.84097
0.41277
0.82167
0.41085
0.82839
0.04074
0.49079
0.44500
0.04060
0.49261
0.44061
0.01533
0.32911
0.25121
0.01629
0.32657
0.25285
-0.02099
0.03610
-0.01061
-0.02172
0.03634
-0.00966
0.01200
0.14268
0.09191
0.01182
0.14055
0.09277
-0.05043
-0.04185
-0.04203
-0.05114
-0.04196
-0.04029
0.01635
0.08435
-0.00036
0.01572
0.08451
0.00126
0.00172
0.00109
0.38393
0.38620
0.00255
0.11331
0.40968
0.56038
0.00237
0.11384
0.40874
0.55721
0.40181
0.57494
0.40112
0.57586
0.14866
0.48002
0.70608
0.14843
0.47834
0.70545
0.10548
0.48848
1.01246
0.10547
0.48642
1.01882
0.05962
0.03080
0.42315
0.44656
0.05928
0.03119
0.42190
0.44661
0.53448
0.82137
0.53072
0.82445
0.01150
0.28950
0.20760
0.01208
0.28818
0.20785
-0.09302
-0.01460
-0.09296
-0.01306
0.01324
0.01738
-0.06208
0.01391
0.01733
-0.06143
0.01938
0.10462
0.06022
0.01828
0.10393
0.06108
0.01991
0.04789
-0.02138
0.01901
0.04774
-0.02042
-0.02109
-0.04409
-0.10481
-0.02123
-0.04472
-0.10311
0.00260
0.00191
0.65024
0.39452
0.00187
0.39387
0.64886
0.00248
0.65812
0.39898
0.00291
0.39855
0.65528
0.10941
0.69584
0.39666
0.10832
0.39519
0.69597
0.15356
0.70696
0.51151
0.15362
0.51016
0.70891
0.09498
1.08266
0.54611
0.09542
0.54680
1.08218
0.04713
0.76232
0.51093
0.04713
0.50854
0.76538
0.01670
0.40945
0.34970
0.01659
0.34835
0.41136
0.01469
0.18400
0.21333
0.01492
0.21186
0.18522
-0.06325
-0.01200
-0.06405
-0.01200
-0.00432
0.00602
-0.08236
0.00643
-0.00299
-0.08236
0.02207
0.05893
0.06879
0.05851
0.02184
0.06879
-0.00299
-0.06405
-0.10311
0.02184
0.00643
-0.02042
0.00952
0.05851
0.18522
0.03098
0.21186
0.41136
0.08001
0.34835
0.76538
0.14030
0.50854
1.08218
0.10076
0.54680
0.70891
0.00104
0.51016
0.69597
0.00151
0.39519
0.65528
0.00168
0.39855
0.64886
0.00168
0.39387
0.39452
0.00151
0.39898
0.65024
0.00104
0.39666
0.65812
0.10076
0.51151
0.69584
0.14030
0.54611
0.70696
0.08001
0.51093
1.08266
0.03098
0.34970
0.76232
0.00952
0.21333
0.40945
0.05893
0.18400
0.02207
0.00602
-0.02138
-0.00432
-0.06325
-0.10481
0.01492
0.04774
0.06108
0.01469
0.04789
0.06022
-0.04472
0.01901
-0.06143
-0.04409
0.01991
-0.06208
-0.02123
-0.01306
-0.02109
-0.01460
0.01659
0.10393
0.20785
0.01670
0.10462
0.20760
0.04713
0.28818
0.44661
0.04713
0.28950
0.44656
0.09542
0.82445
0.42190
0.09498
0.82137
0.42315
0.15362
0.53072
1.01882
0.15356
0.53448
1.01246
0.10832
0.48642
0.70545
0.10941
0.48848
0.70608
0.00291
0.47834
0.55721
0.00248
0.48002
0.56038
0.00187
0.57586
0.40874
0.00191
0.57494
0.40968
0.00260
0.40112
0.38620
0.40181
0.38393
0.01733
-0.09296
-0.04029
0.01738
-0.09302
-0.04203
0.01828
0.01391
0.00126
0.01938
0.01324
-0.00036
0.01208
0.08451
0.09277
0.01150
0.08435
0.09191
0.01572
-0.04196
-0.00966
0.01635
-0.04185
-0.01061
-0.05114
-0.00655
-0.05043
-0.00669
0.03119
0.14055
0.25285
0.03080
0.14268
0.25121
0.05928
0.10547
0.44061
0.84097
0.05962
0.10548
0.44500
0.84140
0.32657
0.49261
0.32911
0.49079
0.14843
0.50468
1.12257
0.14866
0.50756
1.12545
0.11384
0.82839
0.43707
0.11331
0.82167
0.44056
0.00237
0.00109
0.39314
0.35441
0.00255
0.00172
0.39540
0.35227
0.41085
0.45330
0.41277
0.45215
0.37565
0.37601
0.01182
0.03634
0.03305
0.01200
0.03610
0.03353
-0.02172
-0.09499
-0.00089
-0.02099
-0.09548
-0.00078
0.01629
0.10150
0.13472
0.01533
0.10111
0.13353
0.00327
-0.02601
0.01648
0.00412
-0.02628
0.01587
0.04060
0.15287
0.29888
0.04074
0.15355
0.29851
0.06696
0.33534
0.52605
0.06745
0.33616
0.52578
0.00080
0.07450
0.37014
0.41209
0.00046
0.07571
0.36955
0.41530
0.10425
0.42489
0.85174
0.10401
0.42833
0.85106
-0.00028
0.37034
0.29809
-0.00000
0.37308
0.29709
0.46628
1.22386
0.46803
1.21636
-0.08175
-0.00280
-0.08077
-0.00065
-0.00028
0.35026
0.32265
0.35271
0.32208
0.00914
0.04899
0.07823
0.00793
0.04930
0.07623
-0.03070
-0.09390
0.00702
-0.03141
-0.09453
0.00751
0.02222
0.10918
0.18524
0.02202
0.10915
0.18310
-0.00512
-0.02655
0.04212
-0.00533
-0.02773
0.04063
0.04318
0.15760
0.34570
0.04344
0.15842
0.34342
0.06706
0.28817
0.55126
0.06675
0.28942
0.54911
0.07087
-0.00211
0.33816
0.26366
0.07075
-0.00187
0.34075
0.26314
0.09579
0.35056
0.83264
0.09616
0.35219
0.83477
0.69146
0.39532
0.69151
0.39743
-0.00198
0.32610
0.29077
-0.00240
0.32731
0.28914
0.30489
0.30536
-0.08475
0.00239
-0.08480
0.00187
0.00738
0.04220
0.10952
0.00722
0.04165
0.10944
-0.03873
-0.09534
0.01061
-0.04090
-0.09730
0.00850
0.02275
0.09358
0.21748
0.02275
0.09467
0.21765
-0.01251
-0.03974
0.05828
-0.01211
-0.04184
0.05850
0.03966
0.13386
0.35827
0.03937
0.13570
0.35767
0.06136
0.24514
0.54184
0.06138
0.24735
0.54200
0.04382
-0.00354
0.35739
0.20365
0.04461
-0.00348
0.35821
0.20183
0.29608
0.76262
0.29758
0.75915
-0.00436
0.29390
0.23330
-0.00450
0.29682
0.23162
-0.00234
0.27887
0.25792
0.28052
0.25703
-0.09706
-0.09840
0.00366
0.02741
0.13844
0.00314
0.02768
0.13484
-0.04840
0.01102
-0.05032
0.00660
0.02284
0.07375
0.23727
0.02183
0.07360
0.23529
0.03389
0.10715
0.36408
0.03286
0.10933
0.36224
0.04934
0.18827
0.51271
0.04994
0.19025
0.51059
0.05591
0.22146
0.47856
0.05633
0.22383
0.47634
-0.01953
-0.04866
0.06885
-0.02075
-0.05017
0.06541
-0.00526
0.26960
0.18734
-0.00609
0.27109
0.18665
-0.00430
0.26093
0.21111
-0.00395
0.26312
0.21133
0.23167
0.23374
0.00223
0.00564
0.13429
0.00187
0.00419
0.13518
-0.05081
-0.00002
-0.04812