# vtk DataFile Version 3.0
Point representing Sub_cellular elem model
ASCII

DATASET UNSTRUCTURED_GRID
POINTS 3657 float
-54.28412 -3.04368 53.63768 
-54.26758 3.20788 53.65380 
-53.94600 -9.25142 53.21415 
-53.93337 9.44382 53.25485 
-51.11815 0.05187 57.17942 
-50.86439 -6.10681 56.89369 
-50.87101 6.22255 56.88343 
-51.18102 -17.04914 53.84796 
-51.08510 17.16059 53.87299 
-50.56777 -12.16599 56.35473 
-50.48179 12.31209 56.41774 
-47.38671 -3.05881 60.08217 
-47.39816 3.13990 60.07759 
-47.11954 -9.21845 59.73806 
-47.10035 9.26924 59.75174 
-47.48468 -20.12565 56.69028 
-47.41509 20.23437 56.69178 
-46.86964 -15.12068 58.74490 
-46.80493 15.19289 58.78625 
-47.93180 -24.83361 53.81073 
-47.88063 25.04921 53.93349 
-47.99419 -29.66362 50.91663 
-47.88876 29.87882 50.99457 
-43.80670 0.01166 62.84058 
-43.72507 -6.18354 62.77132 
-43.71277 6.21556 62.78121 
-43.36030 -12.13460 62.05942 
-43.33400 12.18480 62.10449 
-43.16307 -18.07262 61.08204 
-43.12132 18.11499 61.11706 
-43.62947 -23.09498 58.78534 
-43.57841 23.18642 58.83730 
-44.13804 -28.06260 56.37778 
-44.05327 28.20856 56.43411 
-43.38758 -33.59232 53.76760 
-43.22315 33.74937 53.76590 
-40.10319 -3.07714 65.20101 
-40.08314 3.11913 65.21410 
-39.83986 -9.07951 64.87199 
-39.81738 9.08856 64.86342 
-39.44871 -14.93237 64.16520 
-39.42952 14.96637 64.18180 
-39.20437 -20.76062 62.89412 
-39.17789 20.82928 62.91392 
-39.72628 -25.83523 60.80072 
-39.65102 25.92678 60.84638 
-39.17405 -31.41315 58.57605 
-39.08898 31.49985 58.63777 
-36.50943 0.01527 67.53236 
-36.31509 -5.95727 67.25381 
-36.27003 5.97688 67.27503 
-35.89021 -11.90996 66.96456 
-35.88518 11.93825 66.97075 
-38.34123 -36.87981 55.98073 
-38.24361 37.00151 56.11624 
-35.53091 -17.71971 65.95002 
-35.53693 17.73746 65.96139 
-35.31339 -23.43500 64.64049 
-35.27376 23.46224 64.67897 
-37.47274 -41.77192 52.40846 
-37.37575 41.97909 52.56264 
-34.81249 -28.99037 62.65711 
-34.72670 29.03534 62.72730 
-34.16092 -34.57917 60.46381 
-34.06786 34.62052 60.54159 
-31.96287 -3.15097 69.65989 
-31.93863 3.14076 69.67234 
-31.58827 -9.12661 69.34397 
-31.59109 9.15643 69.37615 
-31.02933 -14.99456 68.77430 
-31.01469 14.99891 68.79100 
-33.16104 -39.86053 57.44748 
-33.07428 39.93190 57.51068 
-30.73869 -20.79765 67.65197 
-30.72437 20.77628 67.67729 
-31.15810 -25.91664 65.82046 
-31.10478 25.91146 65.87464 
-30.53735 -31.49464 63.80206 
-30.46951 31.52224 63.85124 
-32.18667 -44.91741 54.16607 
-31.97089 45.04683 54.29203 
-29.74714 -36.98332 61.30773 
-29.64356 37.03057 61.33913 
-27.35500 -0.00005 71.68076 
-27.29712 -6.30230 71.64089 
-27.28094 6.30495 71.64960 
-26.63193 -12.31282 71.07914 
-26.58911 12.29525 71.07413 
-28.68170 -42.26855 58.33002 
-28.58426 42.31281 58.39196 
-26.28227 -18.13172 70.32015 
-26.25504 18.10861 70.34787 
-26.59079 -23.25299 68.70953 
-26.56002 23.25277 68.74100 
-26.98317 -28.38207 66.92203 
-26.94311 28.40638 66.95226 
-26.18829 -33.88388 64.62355 
-26.14936 33.91929 64.68002 
-27.40288 -47.38354 54.71741 
-27.24588 47.44863 54.72749 
-25.31148 -39.37792 62.09447 
-25.22674 39.42315 62.13406 
-26.19838 -51.67773 50.30382 
-26.00199 51.82849 50.36723 
-22.65199 -3.16375 73.36470 
-22.61833 3.16485 73.34398 
-22.38230 -9.39521 72.97101 
-22.37492 9.41702 72.97395 
-22.08673 -20.47730 71.12767 
-22.08349 20.48286 71.16228 
-21.80978 -15.28095 72.30824 
-21.76431 15.30322 72.32939 
-22.40445 -25.64587 69.52249 
-22.35339 25.65629 69.52898 
-22.64635 -30.67372 67.48948 
-22.61017 30.70980 67.50756 
-23.98288 -44.67139 58.77123 
-23.88210 44.73654 58.79435 
-21.79524 -36.15546 65.13491 
-21.71679 36.19621 65.16211 
-22.65339 -49.79740 54.93971 
-22.51553 49.86535 54.98342 
-20.54589 -41.60967 62.25791 
-20.45462 41.63031 62.30571 
-21.08256 -54.13596 50.52100 
-20.87006 54.22831 50.58868 
-17.95150 -0.00333 74.93441 
-17.80403 -6.25301 74.59817 
-17.81736 6.24745 74.59447 
-17.70749 -17.68111 73.07326 
-17.65907 17.68430 73.09334 
-17.95039 -22.87110 71.84730 
-17.92998 22.87463 71.86344 
-17.55263 -12.44989 74.11816 
-17.51921 12.43851 74.13104 
-18.10937 -27.92641 70.00166 
-18.09752 27.93411 70.01880 
-18.32864 -32.93309 67.94555 
-18.28979 32.96452 67.96123 
-19.14416 -46.87221 58.84586 
-19.07014 46.89478 58.88075 
-17.10971 -38.37820 65.30352 
-17.01083 38.39549 65.34066 
-17.66165 -51.76035 54.86576 
-17.52739 51.81947 54.89514 
-15.75609 -43.79685 62.40592 
-15.67342 43.82644 62.42761 
-13.36215 -3.17794 75.77059 
-13.33927 3.17157 75.80287 
-15.93867 -56.13877 50.43431 
-15.72115 56.24264 50.52169 
-13.40751 -19.96838 73.58292 
-13.39776 19.97633 73.58988 
-13.17676 -9.44993 75.36714 
-13.17681 9.41792 75.36716 
-13.50655 -25.12348 72.06311 
-13.47384 25.10683 72.08286 
-13.15985 -14.75142 74.67315 
-13.13000 14.73012 74.68571 
-13.58295 -30.18228 70.16208 
-13.56494 30.16217 70.18898 
-13.88996 -34.97475 67.86733 
-13.82732 34.96484 67.90302 
-14.22307 -48.82783 58.76518 
-14.15802 48.85811 58.78236 
-12.50729 -40.38069 65.16090 
-12.46125 40.39428 65.14603 
-12.70105 -53.68608 54.75933 
-12.53581 53.73578 54.77781 
-11.03545 -45.63656 61.92249 
-10.92344 45.67641 61.96926 
-8.86000 0.00140 76.58754 
-8.80274 -11.71580 75.83837 
-8.79477 11.71724 75.82215 
-8.79760 -6.36223 76.49390 
-8.76466 6.36102 76.49972 
-8.90537 -16.93406 75.08361 
-8.88953 16.93684 75.08941 
-9.02044 -22.11270 73.70835 
-8.96884 22.12273 73.71922 
-9.14662 -32.10825 70.02071 
-9.10005 32.14414 70.04557 
-8.99746 -27.27889 72.15216 
-8.96827 27.28177 72.16187 
-9.35560 -36.94824 67.75559 
-9.31983 36.99574 67.74743 
-9.90684 -57.23677 51.24913 
-9.67208 57.24537 51.22223 
-9.42863 -50.64581 58.26660 
-9.35076 50.65096 58.29732 
-7.85427 -42.22778 64.71183 
-7.77913 42.25872 64.71486 
-6.26413 -47.44166 61.52259 
-6.13240 47.48153 61.51695 
-6.47096 -54.21836 55.33278 
-6.33280 54.22097 55.35885 
-4.36709 -3.18691 77.02927 
-4.33868 3.20628 77.03453 
-4.40038 -8.57911 76.63827 
-4.37976 8.57818 76.63966 
-4.42015 -13.92780 75.95879 
-4.40802 13.91700 75.98188 
-4.50802 -19.04170 74.98064 
-4.49532 19.05742 74.97918 
-4.50118 -24.15595 73.55565 
-4.44767 24.18070 73.55376 
-4.50532 -29.06559 71.78976 
-4.49052 29.04472 71.78052 
-4.60542 -33.90638 69.62654 
-4.58007 33.92139 69.62693 
-4.73769 -38.67612 67.14946 
-4.68933 38.70362 67.14343 
-3.43257 -57.62362 51.88298 
-3.23502 57.63737 51.87036 
-3.23308 -51.00027 58.75357 
-3.11857 51.01188 58.71359 
-3.09355 -43.89641 64.08992 
-2.99852 43.91330 64.08786 
-0.06856 -54.48069 55.78338 
-0.05564 -47.55009 61.58432 
-0.03194 -40.30301 66.50245 
-0.01008 -35.54086 68.99316 
0.00621 -30.75490 71.32843 
-0.03332 -25.82843 73.12513 
-0.00344 -20.96989 74.72959 
0.00255 -15.91539 75.78571 
-0.00093 -10.74880 76.66127 
-0.02521 -5.36183 77.07248 
-0.00000 -0.00000 77.34956 
0.02521 5.36183 77.07248 
0.00093 10.74880 76.66127 
-0.00255 15.91539 75.78571 
0.00344 20.96989 74.72959 
0.03332 25.82843 73.12513 
-0.00621 30.75490 71.32843 
0.01008 35.54086 68.99316 
0.03194 40.30301 66.50245 
0.05564 47.55009 61.58432 
0.06856 54.48069 55.78338 
2.99852 -43.91330 64.08786 
3.09355 43.89641 64.08992 
3.11857 -51.01188 58.71359 
3.23308 51.00027 58.75357 
3.23502 -57.63737 51.87036 
3.43257 57.62362 51.88298 
4.68933 -38.70362 67.14343 
4.73769 38.67612 67.14946 
4.58007 -33.92139 69.62693 
4.60542 33.90638 69.62654 
4.49052 -29.04472 71.78052 
4.50532 29.06559 71.78976 
4.44767 -24.18070 73.55376 
4.50118 24.15595 73.55565 
4.49532 -19.05742 74.97918 
4.50802 19.04170 74.98064 
4.40802 -13.91700 75.98188 
4.42015 13.92780 75.95879 
4.37976 -8.57818 76.63966 
4.40038 8.57911 76.63827 
4.33868 -3.20628 77.03453 
4.36709 3.18691 77.02927 
6.33280 -54.22097 55.35885 
6.47096 54.21836 55.33278 
6.13240 -47.48153 61.51695 
6.26413 47.44166 61.52259 
7.77913 -42.25872 64.71486 
7.85427 42.22778 64.71183 
9.35076 -50.65096 58.29732 
9.42863 50.64581 58.26660 
9.67208 -57.24537 51.22223 
9.90684 57.23677 51.24913 
9.31983 -36.99574 67.74743 
9.35560 36.94824 67.75559 
8.96827 -27.28177 72.16187 
8.99746 27.27889 72.15216 
9.10005 -32.14414 70.04557 
9.14662 32.10825 70.02071 
8.96884 -22.12273 73.71922 
9.02044 22.11270 73.70835 
8.88953 -16.93684 75.08941 
8.90537 16.93406 75.08361 
8.76466 -6.36102 76.49972 
8.79760 6.36223 76.49390 
8.79477 -11.71724 75.82215 
8.80274 11.71580 75.83837 
8.86000 -0.00140 76.58754 
10.92344 -45.67641 61.96926 
11.03545 45.63656 61.92249 
12.53581 -53.73578 54.77781 
12.70105 53.68608 54.75933 
12.46125 -40.39428 65.14603 
12.50729 40.38069 65.16090 
14.15802 -48.85811 58.78236 
14.22307 48.82783 58.76518 
13.82732 -34.96484 67.90302 
13.88996 34.97475 67.86733 
13.56494 -30.16217 70.18898 
13.58295 30.18228 70.16208 
13.13000 -14.73012 74.68571 
13.15985 14.75142 74.67315 
13.47384 -25.10683 72.08286 
13.50655 25.12348 72.06311 
13.17681 -9.41792 75.36716 
13.17676 9.44993 75.36714 
13.39776 -19.97633 73.58988 
13.40751 19.96838 73.58292 
15.72115 -56.24264 50.52169 
15.93867 56.13877 50.43431 
13.33927 -3.17157 75.80287 
13.36215 3.17794 75.77059 
15.67342 -43.82644 62.42761 
15.75609 43.79685 62.40592 
17.52739 -51.81947 54.89514 
17.66165 51.76035 54.86576 
17.01083 -38.39549 65.34066 
17.10971 38.37820 65.30352 
19.07014 -46.89478 58.88075 
19.14416 46.87221 58.84586 
18.28979 -32.96452 67.96123 
18.32864 32.93309 67.94555 
18.09752 -27.93411 70.01880 
18.10937 27.92641 70.00166 
17.51921 -12.43851 74.13104 
17.55263 12.44989 74.11816 
17.92998 -22.87463 71.86344 
17.95039 22.87110 71.84730 
17.65907 -17.68430 73.09334 
17.70749 17.68111 73.07326 
17.81736 -6.24745 74.59447 
17.80403 6.25301 74.59817 
17.95150 0.00333 74.93441 
20.87006 -54.22831 50.58868 
21.08256 54.13596 50.52100 
20.45462 -41.63031 62.30571 
20.54589 41.60967 62.25791 
22.51553 -49.86535 54.98342 
22.65339 49.79740 54.93971 
21.71679 -36.19621 65.16211 
21.79524 36.15546 65.13491 
23.88210 -44.73654 58.79435 
23.98288 44.67139 58.77123 
22.61017 -30.70980 67.50756 
22.64635 30.67372 67.48948 
22.35339 -25.65629 69.52898 
[...]
CELL_DATA 40900
SCALARS Strain double 1
LOOKUP_TABLE default
-0.00965
-0.00750
-0.02652
-0.02447
-0.00332
-0.02411
-0.03412
-0.02996
-0.05612
-0.03000
-0.05021
-0.01471
-0.01277
0.01961
0.01558
-0.02802
0.01733
0.00693
-0.02333
0.02079
0.00584
-0.02900
-0.09239
-0.05310
-0.03151
-0.09741
-0.05264
0.01487
-0.06212
0.01143
-0.07372
-0.01887
-0.01552
0.05522
0.05776
-0.02027
0.06341
0.05686
-0.02487
0.06913
0.04165
-0.02184
0.06993
0.04530
-0.04663
-0.05251
-0.05925
-0.08865
-0.03820
-0.04710
-0.05555
-0.08915
0.02978
-0.04419
0.02800
-0.05063
-0.04388
-0.05074
-0.07505
-0.04006
-0.05334
-0.08282
-0.07362
-0.09087
-0.07527
-0.09448
-0.01741
-0.01602
0.09450
0.10069
-0.02059
0.10590
0.09467
-0.01817
0.10609
0.09210
-0.01079
0.11502
0.06201
-0.01170
0.11365
0.05689
-0.02583
-0.02779
-0.01661
-0.01936
-0.03113
-0.01724
-0.04227
-0.02099
-0.04947
-0.03466
-0.02536
-0.04655
-0.03216
-0.03227
-0.05399
-0.02511
-0.03153
-0.05827
-0.06507
-0.08815
-0.06238
-0.09120
-0.01921
-0.01428
0.12491
0.12133
-0.01944
0.12221
0.12332
-0.01866
0.13410
0.12468
-0.01508
0.13891
0.12535
0.00909
0.08742
0.07294
0.01475
0.08514
0.06668
-0.02462
-0.01288
0.01710
-0.02339
-0.01253
0.01606
-0.01973
-0.00633
-0.00918
-0.02127
-0.00702
-0.01045
-0.03558
-0.02429
-0.03513
-0.03523
-0.02102
-0.03692
-0.01882
-0.02050
0.15745
0.15774
-0.01890
0.17936
0.15660
-0.01780
0.17837
0.15124
-0.00501
0.18382
0.20464
-0.00702
0.18472
0.20439
-0.04517
-0.05877
-0.08080
-0.03616
-0.06071
-0.08831
0.00080
0.03871
0.10496
0.00167
0.04292
0.10502
-0.01005
0.03168
0.04550
-0.00835
0.03096
0.04531
-0.06209
-0.07789
-0.06662
-0.07017
-0.01003
0.00423
0.01048
-0.01090
0.00382
0.00485
-0.00944
-0.01490
-0.04276
-0.00432
-0.01910
-0.04193
-0.01914
-0.01873
0.19493
0.18179
-0.01262
0.18921
0.18164
-0.00066
0.20461
0.17782
-0.00438
0.20860
0.17825
0.03318
0.17142
0.23846
0.02849
0.17632
0.23814
-0.04042
-0.03723
-0.07350
-0.03464
-0.03709
-0.07413
-0.00269
0.08367
0.14123
-0.00218
0.08585
0.14717
-0.00111
0.06422
0.06995
0.00456
0.05889
0.06960
-0.00884
0.02242
0.00424
-0.00399
0.01772
0.00024
-0.06335
-0.07697
-0.07475
-0.09266
-0.00859
-0.00328
-0.03484
-0.01154
-0.00652
-0.03787
-0.01488
-0.01443
0.19732
0.20169
-0.01322
0.21410
0.19806
-0.01577
0.21537
0.19835
-0.00277
0.21571
0.35467
-0.00456
0.20563
0.36128
-0.02806
-0.03239
-0.06478
-0.01922
-0.03610
-0.06312
0.01145
0.28407
0.16957
0.01530
0.28260
0.16739
0.00240
0.12868
0.15341
0.00660
0.12427
0.15777
0.00342
0.08461
0.07510
0.00343
0.08544
0.07525
-0.00113
0.03545
0.00111
0.00256
0.03140
0.00805
-0.04863
-0.07023
-0.07984
-0.04415
-0.07386
-0.08229
-0.00038
0.00329
-0.04297
0.00407
0.00187
-0.04373
-0.08310
-0.03606
-0.08647
-0.03781
-0.01345
-0.01537
0.23536
0.22853
-0.01251
0.23177
0.22046
0.02371
0.23384
0.19782
0.02410
0.23314
0.19912
0.03568
0.02033
0.21539
0.32560
0.03240
0.02229
0.22238
0.32862
0.53397
0.23025
0.53170
0.23149
0.00674
0.16677
0.18190
0.01048
0.16342
0.17352
0.00123
0.10310
0.06436
0.00236
0.10200
0.06436
-0.00193
-0.04156
-0.07516
-0.00227
-0.03608
-0.08241
0.00800
0.04041
-0.01208
0.00412
0.03564
-0.01040
-0.03797
-0.06356
-0.07148
-0.03513
-0.06675
-0.07258
0.00684
0.00212
-0.05920
0.00758
0.00227
-0.06005
-0.09136
-0.03905
-0.10020
-0.03755
-0.01164
-0.01148
0.24022
0.24542
-0.01735
0.25143
0.22283
-0.01814
0.25986
0.22208
0.03902
0.01585
0.61506
0.26905
0.03952
0.01822
0.60417
0.26808
0.02252
0.26352
0.35926
0.02325
0.26048
0.35983
0.25832
0.25672
0.25409
0.25477
0.00494
0.19819
0.17291
0.00893
0.20430
0.17140
0.00463
0.11819
0.04942
0.00309
0.12041
0.05034
-0.00293
-0.03300
-0.08501
0.00400
-0.03412
-0.08590
0.00879
0.03469
-0.02411
0.01108
0.03372
-0.03346
-0.03214
-0.07345
-0.08493
-0.03009
-0.07861
-0.08051
0.01628
0.00068
-0.08233
0.01611
-0.00482
-0.07717
-0.00897
-0.00957
0.26531
0.26107
-0.01335
0.25887
0.26282
-0.10463
-0.05960
-0.11304
-0.06163
0.03178
0.01214
0.29674
0.58486
0.02648
0.01796
0.29843
0.59739
-0.01397
0.32246
0.27707
-0.01228
0.32806
0.27949
0.01867
0.28816
0.36585
0.01762
0.28777
0.36724
0.27961
0.45521
0.27106
0.45462
0.00613
0.16101
0.21282
0.00670
0.17270
0.21103
0.00178
0.11879
0.04060
0.00808
0.11150
0.04057
0.00645
-0.04694
-0.10666
0.01235
-0.04023
-0.10634
0.00989
0.02904
-0.05772
0.01089
0.02430
-0.05176
-0.00689
-0.08358
-0.11120
-0.00048
-0.08650
-0.11545
0.02384
-0.01485
-0.10647
0.01963
-0.02180
-0.10250
-0.00432
-0.00489
0.28304
0.29072
-0.00439
0.04717
0.28273
0.36831
-0.00339
0.04678
0.28605
0.36812
0.28778
0.39210
0.28410
0.38900
0.05541
0.29173
0.44410
0.05641
0.29344
0.44497
0.03063
0.30097
0.58825
0.02937
0.29233
0.59089
0.01493
0.00602
0.19302
0.14229
0.01948
0.01072
0.19188
0.13640
0.29590
0.36781
0.29693
0.36200
0.00502
0.08912
0.01901
0.00345
0.09115
0.01994
-0.10457
-0.09048
-0.10674
-0.09540
-0.04304
0.00672
-0.12839
-0.04480
0.01287
-0.12395
0.00885
0.01579
-0.06668
0.01304
0.01244
-0.06398
-0.01464
-0.01945
-0.10377
-0.01653
-0.02028
-0.10679
0.00141
-0.06095
-0.13814
0.01220
-0.07050
-0.13853
-0.00210
0.00409
0.42280
0.27894
0.00039
0.27618
0.42603
-0.00734
0.43764
0.28700
-0.00963
0.29251
0.43283
0.03579
0.38783
0.28589
0.04189
0.28181
0.38486
0.03522
0.45860
0.21878
0.03698
0.21761
0.45515
0.02789
0.59292
0.32630
0.01997
0.32097
0.59409
0.00696
0.32250
0.26679
0.01241
0.27377
0.31734
0.01072
0.12411
0.14969
0.01326
0.14541
0.12187
0.00149
0.00195
0.05120
0.00175
0.05016
0.00294
-0.07536
-0.10927
-0.07813
-0.10927
-0.03013
-0.04398
-0.13354
-0.03941
-0.03285
-0.13354
-0.01847
-0.00380
-0.06169
-0.00483
-0.01906
-0.06169
-0.03285
-0.07813
-0.13853
-0.01906
-0.03941
-0.10679
0.00822
-0.00483
0.00294
0.01345
0.05016
0.12187
0.02472
0.14541
0.31734
0.03268
0.27377
0.59409
0.07653
0.32097
0.45515
0.06051
0.21761
0.38486
0.00557
0.28181
0.43283
-0.00069
0.29251
0.42603
-0.00069
0.27618
0.27894
0.00557
0.28700
0.42280
0.06051
0.28589
0.43764
0.07653
0.21878
0.38783
0.03268
0.32630
0.45860
0.02472
0.26679
0.59292
0.01345
0.14969
0.32250
0.00822
0.05120
0.12411
-0.00380
0.00195
-0.01847
-0.04398
-0.10377
-0.03013
-0.07536
-0.13814
0.00175
-0.02028
-0.06398
0.00149
-0.01945
-0.06668
-0.07050
-0.01653
-0.12395
-0.06095
-0.01464
-0.12839
0.01220
-0.09540
0.00141
-0.09048
0.01326
0.01244
0.01994
0.01072
0.01579
0.01901
0.01241
0.09115
0.13640
0.00696
0.08912
0.14229
0.01997
0.36200
0.19188
0.02789
0.36781
0.19302
0.03698
0.29693
0.59089
0.03522
0.29590
0.58825
0.04189
0.29233
0.44497
0.03579
0.30097
0.44410
-0.00963
0.29344
0.36812
-0.00734
0.29173
0.36831
0.00039
0.38900
0.28605
0.00409
0.39210
0.28273
-0.00210
0.28410
0.29072
0.28778
0.28304
0.01287
-0.10674
-0.11545
0.00672
-0.10457
-0.11120
0.01304
-0.04480
-0.10250
0.00885
-0.04304
-0.10647
0.00345
-0.02180
-0.05176
0.00502
-0.01485
-0.05772
0.01963
-0.08650
-0.10634
0.02384
-0.08358
-0.10666
-0.00048
-0.06163
-0.00689
-0.05960
0.01072
0.02430
0.04057
0.00602
0.02904
0.04060
0.01948
0.02937
0.21103
0.36724
0.01493
0.03063
0.21282
0.36585
0.11150
0.17270
0.11879
0.16101
0.05641
0.28777
0.59739
0.05541
0.28816
0.58486
0.04678
0.45462
0.29843
0.04717
0.45521
0.29674
-0.00339
-0.00489
0.27949
0.26282
-0.00439
-0.00432
0.27707
0.26107
0.27106
0.32806
0.27961
0.32246
0.25887
0.26531
0.01089
-0.04023
-0.07717
0.00989
-0.04694
-0.08233
0.01235
-0.11304
-0.08051
0.00645
-0.10463
-0.08493
0.00808
-0.00482
-0.03346
0.00178
0.00068
-0.02411
0.01611
-0.07861
-0.08590
0.01628
-0.07345
-0.08501
0.00670
0.03372
0.05034
0.00613
0.03469
0.04942
0.01762
0.12041
0.17140
0.01867
0.11819
0.17291
-0.01228
0.01796
0.25477
0.26808
-0.01397
0.01214
0.25672
0.26905
0.02648
0.20430
0.35983
0.03178
0.19819
0.35926
-0.01335
0.25409
0.22208
-0.00957
0.25832
0.22283
0.26048
0.60417
0.26352
0.61506
-0.03009
-0.03755
-0.03214
-0.03905
-0.00897
0.25986
0.24542
0.25143
0.24022
0.01108
-0.03412
-0.06005
0.00879
-0.03300
-0.05920
0.00400
-0.10020
-0.07258
-0.00293
-0.09136
-0.07148
0.00309
0.00227
-0.01040
0.00463
0.00212
-0.01208
0.00758
-0.06675
-0.08241
0.00684
-0.06356
-0.07516
0.00893
0.03564
0.06436
0.00494
0.04041
0.06436
0.02325
0.10200
0.17352
0.02252
0.10310
0.18190
0.01822
-0.01814
0.23149
0.19912
0.01585
-0.01735
0.23025
0.19782
0.03952
0.16342
0.32862
0.03902
0.16677
0.32560
0.53170
0.22238
0.53397
0.21539
-0.01148
0.23314
0.22046
-0.01164
0.23384
0.22853
0.23177
0.23536
-0.03513
-0.03781
-0.03797
-0.03606
0.00412
-0.03608
-0.04373
0.00800
-0.04156
-0.04297
-0.00227
-0.08647
-0.08229
-0.00193
-0.08310
-0.07984
0.00236
0.00187
0.00805
0.00123
0.00329
0.00111
0.00407
-0.07386
-0.06312
-0.00038
-0.07023
-0.06478
0.01048
0.03140
0.07525
0.00674
0.03545
0.07510
0.02229
0.08544
0.15777
0.02033
0.08461
0.15341
0.03240
0.02410
0.16739
0.36128
0.03568
0.02371
0.16957
0.35467
0.12427
0.28260
0.12868
0.28407
-0.01251
0.20563
0.19835
-0.01537
0.21571
0.19806
-0.01345
0.21537
0.20169
0.21410
0.19732
-0.04415
-0.04863
0.00256
-0.03610
-0.03787
-0.00113
-0.03239
-0.03484
-0.01922
-0.09266
-0.02806
-0.07697
0.00343
-0.00652
0.00024
0.00342
-0.00328
0.00424
0.00660
0.01772
0.06960
0.00240
0.02242
0.06995
0.01530
0.05889
0.14717
0.01145
0.06422
0.14123
-0.00456
0.08585
0.23814
-0.00277
0.08367
0.23846
-0.01154
-0.07475
-0.07413
-0.00859
-0.06335
-0.07350
-0.01577
0.17632
0.17825
-0.01322
0.17142
0.17782
-0.01443
0.20860
0.18164
-0.01488
0.20461
0.18179
0.18921
0.19493
-0.00399
-0.03709
-0.04193
-0.00884
-0.03723
-0.04276
-0.03464
-0.07017
-0.04042
-0.07789
0.00456
-0.01910
0.00485
-0.00111
-0.01490
0.01048
-0.00218
0.00382
0.04531
-0.00269
0.00423
0.04550
0.02849
0.03096
0.10502
0.03318
0.03168
0.10496
-0.00432
-0.06662
-0.08831
-0.00944
-0.06209
-0.08080
-0.00438
0.04292
0.20439
-0.00066
0.03871
0.20464
-0.01262
0.18472
0.15124
-0.01873
0.18382
0.15660
-0.01914
0.17837
0.15774
0.17936
0.15745
-0.01090
-0.06071
-0.03692
-0.01003
-0.05877
-0.03513
-0.00835
-0.02102
-0.01045
-0.01005
-0.02429
-0.00918
-0.03616
-0.04517
0.00167
-0.00702
0.01606
0.00080
-0.00633
0.01710
-0.00702
-0.01253
0.06668
-0.00501
-0.01288
0.07294
-0.03523
-0.09120
-0.03558
-0.08815
-0.01780
0.08514
0.12535
-0.01890
0.08742
0.12468
-0.02050
0.13891
0.12332
-0.01882
0.13410
0.12133
0.12221
0.12491
-0.02127
-0.06238
-0.05827
-0.01973
-0.06507
-0.05399
-0.02339
-0.03153
-0.04655
-0.02462
-0.03227
-0.04947
0.01475
-0.02536
-0.01724
0.00909
-0.02099
-0.01661
-0.01508
-0.03113
0.05689
-0.01866
-0.02779
0.06201
-0.01944
0.11365
0.09210
-0.01428
0.11502
0.09467
-0.01921
0.10609
0.10069
0.10590
0.09450
-0.02511
-0.09448
-0.03216
-0.09087
-0.03466
-0.07527
-0.08282
-0.04227
-0.07362
-0.07505
-0.01936
-0.05334
-0.08915
-0.02583
-0.05074
-0.08865
-0.01170
-0.05063
-0.05555
-0.01079
-0.04419
-0.05925
-0.01817
0.02800
0.04530
-0.02059
0.02978
0.04165
-0.01602
0.06993
0.05686
-0.01741
0.06913
0.05776
0.06341
0.05522
-0.04006
-0.04388
-0.04710
-0.05251
-0.03820
-0.02184
-0.07372
-0.05264
-0.04663
-0.02487
-0.06212
-0.05310
-0.09741
-0.09239
-0.02027
0.01143
0.00584
-0.01552
0.01487
0.00693
-0.01887
0.02079
0.01558
0.01733
0.01961
-0.03151
-0.02333
-0.05021
-0.02900
-0.02802
-0.05612
-0.01277
-0.03000
-0.03412
-0.01471
-0.02996
-0.02447
-0.02411
-0.02652
-0.00332
-0.00750
-0.00965
-0.00441
0.00048
0.02984
0.02301
-0.00009
0.03145
0.02278
0.03669
0.00804
0.03591
0.00520
-0.01229
-0.01281
0.06280
0.06065
-0.01921
0.06567
0.05501
-0.02198
0.06747
0.05472
-0.02566
-0.03173
0.03910
-0.02682
-0.02878
0.04006
0.06019
0.02303
0.05978
0.02451
-0.01144
-0.01525
0.09143
0.08406
-0.01498
0.09167
0.08322
-0.01535
0.09459
0.06974
-0.01560
0.09410
0.06783
-0.03076
-0.04220
-0.02480
0.00690
-0.02746
-0.04254
-0.02489
0.00692
0.10968
0.07308
0.10838
0.07082
-0.02958
-0.02429
-0.00508
-0.03124
-0.02427
-0.00380
-0.04587
-0.02839
-0.04614
-0.02525
-0.01121
-0.01194
0.10267
0.10135
-0.01241
0.11008
0.09701
-0.01277
0.11102
0.09723
-0.01242
0.12545
0.09004
-0.01037
0.12515
0.08919
-0.01299
0.08951
0.09436
-0.01150
0.08955
0.09380
-0.03002
0.01162
0.04621
-0.03000
0.01171
0.04595
-0.02210
0.00474
0.02111
-0.02189
0.00402
0.02272
-0.01653
-0.02291
-0.01755
-0.02317
-0.01020
-0.01209
0.11746
0.11585
-0.01135
0.11732
0.11656
-0.01456
0.12731
0.10688
-0.01392
0.12744
0.10679
-0.00965
0.13877
0.18153
-0.00918
0.13913
0.18158
-0.01912
0.03466
0.12924
-0.01738
0.03430
0.12940
-0.02017
0.04367
0.08602
-0.01875
0.04341
0.08589
-0.03735
0.02652
0.04509
-0.03550
0.02568
0.04306
-0.01059
-0.01013
0.13878
0.13935
-0.01315
0.16025
0.12864
-0.01231
0.15993
0.12793
0.00343
0.17074
0.11494
0.00329
0.17158
0.11348
-0.04275
-0.01030
-0.01321
-0.04601
-0.01067
-0.01526
0.01659
0.17458
0.23784
0.01726
0.17439
0.23791
-0.00212
0.08286
0.16150
-0.00158
0.08281
0.16136
-0.01709
-0.01833
-0.01880
-0.02169
-0.01622
0.05221
0.09874
-0.01383
0.05104
0.09820
-0.02003
0.03012
0.03997
-0.01946
0.03070
0.03833
-0.00945
-0.01129
0.15737
0.14717
-0.01193
0.15762
0.14618
-0.01126
0.17565
0.13293
-0.01110
0.17454
0.13304
-0.00535
0.18565
0.30256
-0.00474
0.18524
0.30372
-0.03392
0.01486
-0.00332
-0.03601
0.01520
-0.00277
-0.00065
0.14074
0.26672
0.00024
0.14028
0.26631
-0.00084
0.11748
0.17673
0.00017
0.11694
0.17663
-0.00793
0.07215
0.10113
-0.00700
0.07079
0.10154
-0.00947
-0.04043
-0.00935
-0.03559
-0.02268
0.05132
0.03714
-0.02037
0.05035
0.03815
-0.00948
-0.00900
0.17250
0.17244
-0.01158
0.18344
0.15493
-0.01083
0.18294
0.15659
0.02572
0.19064
0.14150
0.02538
0.19134
0.14261
-0.03984
0.02241
-0.00419
-0.03786
0.02196
-0.00522
0.02337
0.45623
0.22394
0.02335
0.45738
0.22362
0.00743
0.17897
0.29777
0.00898
0.17872
0.29736
0.00318
0.14943
0.17881
0.00503
0.14763
0.17873
-0.00753
0.08934
0.08849
-0.00659
0.08742
0.08663
-0.05660
-0.02010
-0.03656
-0.05517
-0.01873
-0.03483
-0.01292
0.06165
0.02564
-0.01234
0.06000
0.02493
-0.03522
-0.00998
-0.03576
-0.00916
-0.00805
-0.00930
0.19889
0.18787
-0.00882
0.19920
0.18974
-0.00643
0.20846
0.17144
-0.00617
0.20841
0.17130
0.00403
0.02454
0.25008
0.49016
0.00374
0.02556
0.24846
0.48933
0.42690
0.21050
0.42628
0.20935
0.01005
0.21400
0.30381
0.01165
0.21400
0.30582
0.00383
0.17504
0.17003
0.00441
0.17470
0.17018
-0.02046
0.02879
-0.01751
-0.01736
0.02750
-0.01684
-0.00234
0.10198
0.07158
-0.00087
0.10199
0.07153
-0.04330
-0.00438
-0.02954
-0.04299
-0.00458
-0.02969
-0.00238
0.06813
0.00168
-0.00094
0.06702
0.00203
-0.03992
-0.01244
-0.04007
-0.01485
-0.00698
-0.00694
0.20914
0.20930
-0.00510
0.22553
0.19385
-0.00440
0.22328
0.19367
0.05041
0.05047
0.75945
0.25001
0.05061
0.05054
0.76126
0.24920
0.02797
0.27468
0.52297
0.02919
0.27559
0.52280
0.23550
0.21349
0.23566
0.21348
0.01336
0.25719
0.29960
0.01328
0.25593
0.29967
0.00432
0.20188
0.14920
0.00555
0.20047
0.14905
-0.01117
0.03241
-0.03373
-0.01055
0.03137
-0.03349
0.00049
0.09993
0.03806
0.00234
0.09900
0.04008
-0.03392
-0.00773
-0.03362
-0.03411
-0.00837
-0.03521
0.00468
0.06156
-0.02560
0.00483
0.06130
-0.02637
-0.00260
-0.00322
0.24664
0.23576
-0.00354
0.24617
0.23656
-0.04839
-0.01207
-0.04844
-0.01210
0.05326
0.03450
0.25805
0.70009
0.05447
0.03390
0.25760
0.69835
-0.00383
0.28459
0.25352
-0.00288
0.28530
0.25235
0.02810
0.30932
0.52024
0.02889
0.30874
0.52060
0.25238
0.43782
0.25298
0.43926
0.01528
0.28259
0.27483
0.01588
0.28096
0.27309
0.00311
0.19835
0.12001
0.00472
0.19683
0.12032
-0.00018
0.02104
-0.05203
-0.00032
0.01852
-0.05175
0.00594
0.09019
0.01628
0.00639
0.08930
0.01623
-0.01716
-0.02260
-0.05060
-0.01695
-0.02367
-0.04914
0.01498
0.04869
-0.04817
0.01543
0.04795
-0.04779
0.00273
0.00195
0.26070
0.26136
0.00497
0.07572
0.27729
0.33639
0.00488
0.07578
0.27623
0.33722
0.26760
0.35676
0.26716
0.35867
0.09497
0.27502
0.37700
0.09641
0.27237
0.37645
0.05473
0.27517
0.65480
0.05553
0.27538
0.65501
0.02806
0.01585
0.26665
0.25863
0.02786
0.01622
0.26608
0.25915
0.32758
0.51415
0.32815
0.51512
0.00419
0.17328
0.09629
0.00629
0.17085
0.09675
-0.04973
-0.00572
-0.05044
-0.00395
0.00338
0.01342
-0.07243
0.00253
0.01438
-0.07196
0.01228
0.06272
-0.00694
0.01108
0.06165
-0.00619
0.00292
0.02373
-0.04959
0.00445
0.02248
-0.04795
-0.00142
-0.02694
-0.09019
-0.00133
-0.02770
-0.08885
0.00633
0.00442
0.40802
0.27052
0.00456
0.26908
0.40879
0.00161
0.40610
0.27791
0.00233
0.27668
0.40590
0.06348
0.40757
0.27763
0.06273
0.27715
0.40749
0.08307
0.37671
0.29772
0.08297
0.29676
0.37916
0.04521
0.67986
0.32029
0.04677
0.32107
0.68027
0.02692
0.47033
0.32984
0.02714
0.32983
0.47083
0.01387
0.23041
0.22327
0.01432
0.22432
0.23077
0.00939
0.08186
0.12345
0.01000
0.12281
0.08262
-0.03508
-0.00151
-0.03633
-0.00151
-0.00623
-0.00239
-0.08431
-0.00389
-0.00322
-0.08431
0.00147
0.03106
0.00987
0.03023
0.00232
0.00987
-0.00322
-0.03633
-0.08885
0.00232
-0.00389
-0.04795
0.01264
0.03023
0.08262
0.02196
0.12281
0.23077
0.03982
0.22432
0.47083
0.06309
0.32983
0.68027
0.05069
0.32107
0.37916
-0.00496
0.29676
0.40749
0.00132
0.27715
0.40590
0.00344
0.27668
0.40879
0.00344
0.26908
0.27052
0.00132
0.27791
0.40802
-0.00496
0.27763
0.40610
0.05069
0.29772
0.40757
0.06309
0.32029
0.37671
0.03982
0.32984
0.67986
0.02196
0.22327
0.47033
0.01264
0.12345
0.23041
0.03106
0.08186
0.00147
-0.00239
-0.04959
-0.00623
-0.03508
-0.09019
0.01000
0.02248
-0.00619
0.00939
0.02373
-0.00694
-0.02770
0.00445
-0.07196
-0.02694
0.00292
-0.07243
-0.00133
-0.00395
-0.00142
-0.00572
0.01432
0.06165
0.09675
0.01387
0.06272
0.09629
0.02714
0.17085
0.25915
0.02692
0.17328
0.25863
0.04677
0.51512
0.26608
0.04521
0.51415
0.26665
0.08297
0.32815
0.65501
0.08307
0.32758
0.65480
0.06273
0.27538
0.37645
0.06348
0.27517
0.37700
0.00233
0.27237
0.33722
0.00161
0.27502
0.33639
0.00456
0.35867
0.27623
0.00442
0.35676
0.27729
0.00633
0.26716
0.26136
0.26760
0.26070
0.01438
-0.05044
-0.04914
0.01342
-0.04973
-0.05060
0.01108
0.00253
-0.04779
0.01228
0.00338
-0.04817
0.00629
0.04795
0.01623
0.00419
0.04869
0.01628
0.01543
-0.02367
-0.05175
0.01498
-0.02260
-0.05203
-0.01695
-0.01210
-0.01716
-0.01207
0.01622
0.08930
0.12032
0.01585
0.09019
0.12001
0.02786
0.05553
0.27309
0.52060
0.02806
0.05473
0.27483
0.52024
0.19683
0.28096
0.19835
0.28259
0.09641
0.30874
0.69835
0.09497
0.30932
0.70009
0.07578
0.43926
0.25760
0.07572
0.43782
0.25805
0.00488
0.00195
0.25235
0.23656
0.00497
0.00273
0.25352
0.23576
0.25298
0.28530
0.25238
0.28459
0.24617
0.24664
0.00639
0.01852
-0.02637
0.00594
0.02104
-0.02560
-0.00032
-0.04844
-0.03521
-0.00018
-0.04839
-0.03362
0.00472
0.06130
0.04008
0.00311
0.06156
0.03806
0.00483
-0.00837
-0.03349
0.00468
-0.00773
-0.03373
0.01588
0.09900
0.14905
0.01528
0.09993
0.14920
0.02889
0.20047
0.29967
0.02810
0.20188
0.29960
-0.00288
0.03390
0.21348
0.24920
-0.00383
0.03450
0.21349
0.25001
0.05447
0.25593
0.52280
0.05326
0.25719
0.52297
-0.00354
0.23566
0.19367
-0.00322
0.23550
0.19385
0.27559
0.76126
0.27468
0.75945
-0.03411
-0.01485
-0.03392
-0.01244
-0.00260
0.22328
0.20930
0.22553
0.20914
0.00234
0.03137
0.00203
0.00049
0.03241
0.00168
-0.01055
-0.04007
-0.02969
-0.01117
-0.03992
-0.02954
0.00555
0.06702
0.07153
0.00432
0.06813
0.07158
-0.00094
-0.00458
-0.01684
-0.00238
-0.00438
-0.01751
0.01328
0.10199
0.17018
0.01336
0.10198
0.17003
0.02919
0.17470
0.30582
0.02797
0.17504
0.30381
0.05054
-0.00440
0.20935
0.17130
0.05047
-0.00510
0.21050
0.17144
0.05061
0.21400
0.48933
0.05041
0.21400
0.49016
0.42628
0.24846
0.42690
0.25008
-0.00694
0.20841
0.18974
-0.00698
0.20846
0.18787
0.19920
0.19889
-0.04299
-0.00916
-0.04330
-0.00998
-0.00087
0.02750
0.02493
-0.00234
0.02879
0.02564
-0.01736
-0.03576
-0.03483
-0.02046
-0.03522
-0.03656
0.00441
0.06000
0.08663
0.00383
0.06165
0.08849
-0.01234
-0.01873
-0.00522
-0.01292
-0.02010
-0.00419
0.01165
0.08742
0.17873
0.01005
0.08934
0.17881
0.02556
0.14763
0.29736
0.02454
0.14943
0.29777
0.00374
-0.00617
0.22362
0.14261
0.00403
-0.00643
0.22394
0.14150
0.17872
0.45738
0.17897
0.45623
-0.00882
0.19134
0.15659
-0.00930
0.19064
0.15493
-0.00805
0.18294
0.17244
0.18344
0.17250
-0.05517
-0.05660
-0.00659
0.02196
0.03815
-0.00753
0.02241
0.03714
-0.03786
-0.03559
-0.03984
-0.04043
0.00503
0.05035
0.10154
0.00318
0.05132
0.10113
0.00898
0.07079
0.17663
0.00743
0.07215
0.17673
0.02335
0.11694
0.26631
0.02337
0.11748
0.26672
0.02538
0.14028
0.30372
0.02572
0.14074
0.30256
-0.02037
-0.00935
-0.00277
-0.02268
-0.00947
-0.00332
-0.01083
0.18524
0.13304