# vtk DataFile Version 3.0
Point representing Sub_cellular elem model
ASCII

DATASET UNSTRUCTURED_GRID
POINTS 3657 float
-54.89716 -3.07963 52.12199 
-54.88030 3.22828 52.15291 
-54.50422 -9.33911 51.78664 
-54.49642 9.52459 51.83817 
-51.82121 0.03684 55.79504 
-51.54355 -6.17016 55.54883 
-51.56715 6.26064 55.53843 
-51.65767 -17.31658 52.60863 
-51.57063 17.41613 52.68581 
-51.18266 -12.27590 55.02342 
-51.08933 12.41137 55.12992 
-48.18497 -3.07744 58.85191 
-48.20561 3.13426 58.84555 
-47.88814 -9.27014 58.53087 
-47.88229 9.28093 58.55892 
-47.96575 -20.30240 55.67105 
-47.91524 20.39711 55.71058 
-47.54228 -15.18886 57.64346 
-47.48592 15.22569 57.71996 
-48.30804 -25.11751 52.80533 
-48.24425 25.34198 53.00362 
-48.16965 -30.03158 49.92263 
-48.05697 30.26247 50.06626 
-44.69545 -0.00960 61.75230 
-44.59494 -6.19567 61.68228 
-44.58817 6.19266 61.70320 
-44.17052 -12.14144 61.04694 
-44.14741 12.16293 61.11487 
-43.82615 -18.09141 60.15152 
-43.79687 18.09269 60.22187 
-44.16470 -23.19734 57.94659 
-44.11947 23.26364 58.04328 
-44.48430 -28.23464 55.57543 
-44.40170 28.37662 55.68384 
-43.56889 -33.82325 53.03634 
-43.40271 33.99834 53.07672 
-41.01978 -3.07242 64.28573 
-40.99597 3.09299 64.30683 
-40.73334 -9.06792 63.98215 
-40.71782 9.04010 63.98784 
-40.27801 -14.89687 63.33331 
-40.26761 14.90306 63.37037 
-39.88420 -20.74745 62.16161 
-39.86864 20.80089 62.20822 
-40.24323 -25.86794 60.12224 
-40.16655 25.94969 60.21286 
-39.53582 -31.51529 57.98576 
-39.45771 31.58602 58.09683 
-37.44419 0.00559 66.75980 
-37.24773 -5.93162 66.50501 
-37.19350 5.92650 66.54226 
-36.80258 -11.86567 66.23497 
-36.80503 11.87307 66.25366 
-38.53394 -37.02675 55.46849 
-38.43187 37.12794 55.67217 
-36.33394 -17.67325 65.29400 
-36.35544 17.66340 65.32234 
-35.96655 -23.39756 64.04798 
-35.93170 23.40075 64.11924 
-37.52771 -42.02005 51.92844 
-37.42121 42.23332 52.15552 
-35.32872 -28.98148 62.16932 
-35.23490 29.00882 62.28484 
-34.49807 -34.60807 60.05385 
-34.40707 34.62478 60.18389 
-32.88269 -3.14627 69.09068 
-32.85376 3.10319 69.11163 
-32.50446 -9.08488 68.79668 
-32.51370 9.10150 68.83359 
-31.92017 -14.92302 68.25675 
-31.90857 14.90405 68.29080 
-33.35486 -39.96248 57.12886 
-33.28399 40.02258 57.24429 
-31.51465 -20.74749 67.18575 
-31.51029 20.69227 67.23572 
-31.80566 -25.87904 65.40338 
-31.75053 25.84410 65.49438 
-31.01480 -31.48165 63.47484 
-30.94875 31.49300 63.56123 
-32.24722 -45.04748 53.88305 
-31.98542 45.18370 54.09395 
-30.09370 -36.98634 61.06965 
-29.98756 37.03010 61.14357 
-28.20647 -0.01041 71.31065 
-28.17460 -6.28085 71.24848 
-28.15642 6.26326 71.26465 
-27.52585 -12.26832 70.71613 
-27.47627 12.22108 70.73035 
-28.87359 -42.31557 58.16398 
-28.78586 42.34233 58.27132 
-27.11091 -18.06693 69.97840 
-27.08219 18.01182 70.02816 
-27.31067 -23.19517 68.41447 
-27.27914 23.17585 68.47053 
-27.55399 -28.33619 66.65533 
-27.51630 28.34956 66.71145 
-26.62546 -33.85303 64.44859 
-26.59249 33.87208 64.53236 
-27.46174 -47.48580 54.63430 
-27.30964 47.55549 54.68567 
-25.59659 -39.34772 61.98575 
-25.51305 39.38662 62.05846 
-26.17523 -51.85737 50.17478 
-25.95859 52.02397 50.29223 
-23.44347 -3.15985 73.14787 
-23.39831 3.14548 73.13609 
-23.17140 -9.36385 72.76468 
-23.16663 9.37902 72.77129 
-22.83735 -20.40830 70.95308 
-22.83750 20.39916 71.00128 
-22.61656 -15.20908 72.12449 
-22.56181 15.22505 72.16079 
-23.05200 -25.58702 69.36969 
-22.99205 25.58834 69.40116 
-23.14351 -30.63430 67.38534 
-23.10835 30.66808 67.42336 
-24.13398 -44.67634 58.75874 
-24.03610 44.74533 58.80826 
-22.16311 -36.10981 65.09653 
-22.07578 36.15000 65.15059 
-22.69074 -49.85862 54.94959 
-22.55362 49.92039 55.03270 
-20.79375 -41.58854 62.29502 
-20.69835 41.59597 62.37587 
-21.03064 -54.26713 50.50548 
-20.79986 54.36455 50.63187 
-18.63843 -0.01157 74.85438 
-18.48363 -6.24689 74.53150 
-18.50374 6.22604 74.52925 
-18.40038 -17.61138 73.02326 
-18.33975 17.60167 73.05902 
-18.57822 -22.81260 71.80308 
-18.55372 22.80424 71.83389 
-18.25931 -12.40789 74.04169 
-18.21767 12.37653 74.06640 
-18.64014 -27.88252 69.98870 
-18.63268 27.87933 70.02138 
-18.72812 -32.88664 67.95492 
-18.68988 32.91801 67.98637 
-19.26356 -46.86921 58.94064 
-19.20557 46.88021 59.00530 
-17.40930 -38.33120 65.38973 
-17.29342 38.33997 65.45058 
-17.67067 -51.80002 54.99434 
-17.54000 51.85965 55.05280 
-15.92098 -43.73954 62.53742 
-15.83919 43.76588 62.58141 
-13.91363 -3.17688 75.81017 
-13.88174 3.15633 75.84511 
-15.87643 -56.22647 50.53742 
-15.63049 56.32668 50.67525 
-13.92193 -19.91196 73.65630 
-13.91228 19.91303 73.67103 
-13.73537 -9.43159 75.41135 
-13.73808 9.37481 75.41751 
-13.99492 -25.07205 72.15133 
-13.95337 25.03778 72.18732 
-13.73472 -14.69848 74.72321 
-13.69548 14.65621 74.74697 
-13.99394 -30.14562 70.26912 
-13.97906 30.10650 70.31516 
-14.20395 -34.94204 68.00452 
-14.13276 34.91580 68.06182 
-14.28511 -48.79795 58.95032 
-14.24066 48.82673 58.98635 
-12.69868 -40.33007 65.35367 
-12.66450 40.34376 65.35303 
-12.69355 -53.66675 54.95293 
-12.51673 53.71967 54.99247 
-11.14953 -45.59037 62.16300 
-11.01837 45.62275 62.22828 
-9.25707 -0.00236 76.70402 
-9.19801 -11.67091 75.97042 
-9.18604 11.66791 75.95925 
-9.19753 -6.34333 76.60745 
-9.15457 6.33305 76.61688 
-9.27545 -16.88627 75.22850 
-9.25241 16.88282 75.24076 
-9.37200 -22.06535 73.88375 
-9.30416 22.07140 73.90216 
-9.42459 -32.06975 70.23035 
-9.36530 32.11075 70.26112 
-9.32771 -27.24394 72.33809 
-9.28995 27.24050 72.35698 
-9.53359 -36.89730 67.97358 
-9.49837 36.95502 67.96851 
-9.86795 -57.27498 51.45514 
-9.60861 57.29068 51.44147 
-9.45881 -50.60283 58.51629 
-9.39553 50.59574 58.56603 
-7.98141 -42.17384 64.97728 
-7.90098 42.20532 64.98849 
-6.30804 -47.34401 61.79981 
-6.15576 47.39274 61.79893 
-6.47442 -54.19619 55.59576 
-6.33635 54.18835 55.63744 
-4.56709 -3.17088 77.19224 
-4.53109 3.19501 77.19778 
-4.61079 -8.56006 76.80802 
-4.58436 8.55446 76.81113 
-4.61455 -13.88422 76.14642 
-4.59396 13.86251 76.17273 
-4.67870 -18.99660 75.19209 
-4.65841 19.01653 75.19196 
-4.67495 -24.11942 73.80040 
-4.60534 24.15085 73.79817 
-4.66819 -29.04592 72.04403 
-4.65140 29.01300 72.04321 
-4.74370 -33.85943 69.90236 
-4.71440 33.87465 69.90688 
-4.80977 -38.62907 67.44207 
-4.75785 38.66200 67.43782 
-3.41705 -57.65011 52.14247 
-3.20876 57.66650 52.12399 
-3.24419 -50.91744 59.05009 
-3.13052 50.94353 59.00810 
-3.12323 -43.82041 64.40263 
-3.01627 43.83916 64.40375 
-0.06614 -54.41901 56.05575 
-0.05965 -47.48637 61.88926 
-0.03582 -40.23784 66.80400 
-0.00943 -35.50583 69.28283 
0.00948 -30.73808 71.59906 
-0.04219 -25.81232 73.39500 
-0.00536 -20.95523 74.96647 
0.00085 -15.88846 75.99437 
-0.00096 -10.71814 76.85132 
-0.03249 -5.34272 77.25297 
-0.00000 0.00000 77.51823 
0.03249 5.34272 77.25297 
0.00096 10.71814 76.85132 
-0.00085 15.88846 75.99437 
0.00536 20.95523 74.96647 
0.04219 25.81232 73.39500 
-0.00948 30.73808 71.59906 
0.00943 35.50583 69.28283 
0.03582 40.23784 66.80400 
0.05965 47.48637 61.88926 
0.06614 54.41901 56.05575 
3.01627 -43.83916 64.40375 
3.12323 43.82041 64.40263 
3.13052 -50.94353 59.00810 
3.24419 50.91744 59.05009 
3.20876 -57.66650 52.12399 
3.41705 57.65011 52.14247 
4.75785 -38.66200 67.43782 
4.80977 38.62907 67.44207 
4.71440 -33.87465 69.90688 
4.74370 33.85943 69.90236 
4.65140 -29.01300 72.04321 
4.66819 29.04592 72.04403 
4.60534 -24.15085 73.79817 
4.67495 24.11942 73.80040 
4.65841 -19.01653 75.19196 
4.67870 18.99660 75.19209 
4.59396 -13.86251 76.17273 
4.61455 13.88422 76.14642 
4.58436 -8.55446 76.81113 
4.61079 8.56006 76.80802 
4.53109 -3.19501 77.19778 
4.56709 3.17088 77.19224 
6.33635 -54.18835 55.63744 
6.47442 54.19619 55.59576 
6.15576 -47.39274 61.79893 
6.30804 47.34401 61.79981 
7.90098 -42.20532 64.98849 
7.98141 42.17384 64.97728 
9.39553 -50.59574 58.56603 
9.45881 50.60283 58.51629 
9.60861 -57.29068 51.44147 
9.86795 57.27498 51.45514 
9.49837 -36.95502 67.96851 
9.53359 36.89730 67.97358 
9.28995 -27.24050 72.35698 
9.32771 27.24394 72.33809 
9.36530 -32.11075 70.26112 
9.42459 32.06975 70.23035 
9.30416 -22.07140 73.90216 
9.37200 22.06535 73.88375 
9.25241 -16.88282 75.24076 
9.27545 16.88627 75.22850 
9.15457 -6.33305 76.61688 
9.19753 6.34333 76.60745 
9.18604 -11.66791 75.95925 
9.19801 11.67091 75.97042 
9.25707 0.00236 76.70402 
11.01837 -45.62275 62.22828 
11.14953 45.59037 62.16300 
12.51673 -53.71967 54.99247 
12.69355 53.66675 54.95293 
12.66450 -40.34376 65.35303 
12.69868 40.33007 65.35367 
14.24066 -48.82673 58.98635 
14.28511 48.79795 58.95032 
14.13276 -34.91580 68.06182 
14.20395 34.94204 68.00452 
13.97906 -30.10650 70.31516 
13.99394 30.14562 70.26912 
13.69548 -14.65621 74.74697 
13.73472 14.69848 74.72321 
13.95337 -25.03778 72.18732 
13.99492 25.07205 72.15133 
13.73808 -9.37481 75.41751 
13.73537 9.43159 75.41135 
13.91228 -19.91303 73.67103 
13.92193 19.91196 73.65630 
15.63049 -56.32668 50.67525 
15.87643 56.22647 50.53742 
13.88174 -3.15633 75.84511 
13.91363 3.17688 75.81017 
15.83919 -43.76588 62.58141 
15.92098 43.73954 62.53742 
17.54000 -51.85965 55.05280 
17.67067 51.80002 54.99434 
17.29342 -38.33997 65.45058 
17.40930 38.33120 65.38973 
19.20557 -46.88021 59.00530 
19.26356 46.86921 58.94064 
18.68988 -32.91801 67.98637 
18.72812 32.88664 67.95492 
18.63268 -27.87933 70.02138 
18.64014 27.88252 69.98870 
18.21767 -12.37653 74.06640 
18.25931 12.40789 74.04169 
18.55372 -22.80424 71.83389 
18.57822 22.81260 71.80308 
18.33975 -17.60167 73.05902 
18.40038 17.61138 73.02326 
18.50374 -6.22604 74.52925 
18.48363 6.24689 74.53150 
18.63843 0.01157 74.85438 
20.79986 -54.36455 50.63187 
21.03064 54.26713 50.50548 
20.69835 -41.59597 62.37587 
20.79375 41.58854 62.29502 
22.55362 -49.92039 55.03270 
22.69074 49.85862 54.94959 
22.07578 -36.15000 65.15059 
22.16311 36.10981 65.09653 
24.03610 -44.74533 58.80826 
24.13398 44.67634 58.75874 
23.10835 -30.66808 67.42336 
23.14351 30.63430 67.38534 
22.99205 -25.58834 69.40116 
[...]
CELL_DATA 40900
SCALARS Strain double 1
LOOKUP_TABLE default
0.01408
0.01010
-0.04317
-0.03427
0.00920
-0.04432
-0.03322
-0.05745
-0.03133
-0.05648
-0.03091
0.01753
0.01685
0.00108
0.00273
0.02518
0.00153
0.00109
0.02505
0.00050
0.00174
-0.00299
-0.05635
-0.10218
-0.00406
-0.05690
-0.10204
-0.00814
0.00619
-0.00777
0.00818
0.01606
0.01672
0.04253
0.03546
0.01741
0.04063
0.03626
0.01831
0.03990
0.03329
0.01737
0.03954
0.03433
0.00980
-0.01574
-0.07075
-0.00056
0.00745
-0.01455
-0.07062
-0.00174
-0.00476
0.01293
-0.00528
0.01562
-0.03004
-0.09757
-0.04968
-0.03057
-0.09682
-0.04844
-0.11552
-0.06991
-0.11555
-0.06967
0.01108
0.01191
0.06547
0.06439
0.01336
0.06762
0.05467
0.01337
0.06755
0.05478
0.01337
0.06238
0.06238
0.01300
0.06163
0.06387
-0.00223
-0.03097
0.06055
-0.00464
-0.02983
0.06059
-0.00596
-0.05384
0.02822
-0.00850
-0.05321
0.02743
-0.01332
-0.07950
-0.01485
-0.01545
-0.07861
-0.01288
-0.09505
-0.03299
-0.09487
-0.03286
0.00825
0.00922
0.08952
0.08225
0.00983
0.09005
0.08188
0.02581
0.09073
0.06696
0.02505
0.08999
0.06783
0.01950
0.05526
0.08937
0.01775
0.05510
0.09178
0.00474
-0.01098
0.08011
0.00457
-0.01134
0.08030
0.00791
-0.03487
0.04625
0.00759
-0.03477
0.04671
-0.00216
-0.05208
0.01234
-0.00222
-0.05176
0.01385
0.00599
0.00609
0.10871
0.10889
0.00895
0.13119
0.09453
0.00947
0.13107
0.09616
0.02408
0.13164
0.12839
0.02452
0.13198
0.12897
-0.02901
-0.07103
0.00439
-0.02955
-0.07064
0.00691
0.02737
0.03882
0.12482
0.02742
0.03829
0.12468
0.01881
0.01604
0.10881
0.01826
0.01613
0.10868
-0.10654
-0.03766
-0.10471
-0.03746
0.00520
-0.01677
0.07245
0.00472
-0.01620
0.07461
-0.01574
-0.03335
0.04890
-0.01712
-0.03228
0.04997
0.00454
0.00452
0.12883
0.12005
0.00449
0.13095
0.11972
0.03071
0.15599
0.09798
0.03175
0.15427
0.09746
0.03350
0.14271
0.16435
0.03473
0.14075
0.16511
-0.02213
-0.05824
0.02100
-0.02189
-0.05659
0.02168
0.01807
0.07334
0.15255
0.01760
0.07302
0.15015
0.01724
0.04002
0.11459
0.01557
0.04147
0.11468
0.00169
-0.00148
0.08717
0.00032
0.00011
0.08785
-0.08757
-0.00357
-0.08588
-0.00027
-0.01192
-0.02103
0.05121
-0.01248
-0.02024
0.05191
0.00317
0.00304
0.14266
0.14115
0.00264
0.14994
0.12373
0.00250
0.14903
0.12314
0.03159
0.17560
0.20160
0.03294
0.18056
0.19805
-0.02765
-0.04869
0.02957
-0.03074
-0.04722
0.03104
0.03453
0.21419
0.12845
0.03320
0.21256
0.13021
0.01902
0.09768
0.17007
0.01761
0.09878
0.16903
0.01410
0.06156
0.12934
0.01207
0.06306
0.12914
-0.00174
0.01426
0.09088
-0.00272
0.01611
0.08987
-0.05558
-0.07643
0.00965
-0.05488
-0.07597
0.01040
-0.01801
-0.00957
0.05671
-0.01889
-0.00843
0.05746
-0.11410
-0.01754
-0.11393
-0.01749
0.00350
0.00409
0.16227
0.15270
0.00397
0.16378
0.15467
0.02992
0.17447
0.15150
0.03032
0.17461
0.15173
0.04306
0.03211
0.16849
0.22365
0.04250
0.03150
0.16709
0.22303
0.26931
0.19368
0.27053
0.19259
0.02055
0.12501
0.17493
0.01876
0.12556
0.17660
0.01140
0.08046
0.12742
0.01056
0.08114
0.12732
-0.03609
-0.03769
0.03121
-0.03706
-0.03760
0.03311
-0.00279
0.02330
0.08568
-0.00300
0.02428
0.08528
-0.05727
-0.07390
0.00948
-0.05789
-0.07279
0.00979
-0.01638
-0.00297
0.04578
-0.01707
-0.00239
0.04609
-0.10815
-0.00957
-0.10786
-0.00893
0.00427
0.00433
0.16093
0.15995
0.00340
0.17958
0.15528
0.00350
0.17890
0.15594
0.04264
0.03364
0.29801
0.20337
0.04234
0.03299
0.29974
0.20288
0.03388
0.19660
0.24057
0.03283
0.19718
0.24041
0.19216
0.19363
0.19305
0.19384
0.01676
0.14984
0.17750
0.01596
0.14882
0.17801
0.00784
0.09620
0.12833
0.00724
0.09597
0.12790
-0.03305
-0.03908
0.02295
-0.03431
-0.03777
0.02358
-0.00492
0.02819
0.07588
-0.00651
0.02879
0.07851
-0.05924
-0.07205
0.00437
-0.05930
-0.07020
0.00393
-0.01686
-0.00103
0.04006
-0.01690
0.00080
0.03818
0.00246
0.00242
0.18469
0.17681
0.00304
0.18654
0.17522
-0.10954
-0.03622
-0.10877
-0.03460
0.04699
0.03831
0.21258
0.30707
0.04639
0.03788
0.21311
0.30360
0.00249
0.22487
0.19738
0.00196
0.22128
0.19870
0.02997
0.20616
0.23791
0.03013
0.20766
0.23669
0.20836
0.30035
0.21141
0.29893
0.01371
0.17870
0.15205
0.01301
0.17356
0.15410
0.00452
0.09642
0.11172
0.00259
0.09974
0.11092
-0.03287
-0.03148
0.01308
-0.03371
-0.03195
0.01269
-0.00521
0.02561
0.06391
-0.00555
0.02753
0.06192
-0.02929
-0.07195
-0.04758
-0.03075
-0.07083
-0.04680
-0.01128
-0.00336
0.02023
-0.01076
-0.00092
0.01890
-0.00097
-0.00034
0.19109
0.18775
-0.00159
0.03424
0.20346
0.25966
-0.00088
0.03271
0.20345
0.26032
0.19640
0.25258
0.19880
0.25226
0.05673
0.21259
0.28448
0.05602
0.21297
0.28345
0.04028
0.21998
0.28534
0.04081
0.22250
0.28319
0.02305
0.00474
0.14616
0.16850
0.02211
0.00276
0.14537
0.17015
0.19654
0.24277
0.19741
0.24497
-0.00050
0.08984
0.09908
-0.00154
0.09024
0.09845
-0.10308
-0.07679
-0.10189
-0.07614
-0.04039
-0.00320
-0.04064
-0.03972
-0.00600
-0.04134
-0.00259
0.02184
0.04405
-0.00381
0.02294
0.04317
-0.00480
-0.00820
-0.01944
-0.00457
-0.00747
-0.01880
-0.01468
-0.06321
-0.07801
-0.01657
-0.06092
-0.07830
-0.00233
-0.00099
0.27963
0.20240
-0.00108
0.20396
0.27816
0.00060
0.27274
0.20052
0.00023
0.20028
0.27307
0.03731
0.28354
0.19975
0.03742
0.20168
0.28356
0.06023
0.28009
0.18330
0.05994
0.18394
0.28022
0.03589
0.30191
0.21092
0.03605
0.21094
0.30297
0.01194
0.23174
0.18153
0.01095
0.18117
0.23258
-0.00210
0.15139
0.12928
-0.00274
0.12987
0.15215
0.00016
0.07590
0.07494
0.00005
0.07547
0.07510
-0.08121
-0.09454
-0.07908
-0.09454
-0.02794
-0.02268
-0.05373
-0.02332
-0.02854
-0.05373
0.00040
0.00920
0.01766
0.00982
-0.00059
0.01766
-0.02854
-0.07908
-0.07830
-0.00059
-0.02332
-0.01880
-0.00853
0.00982
0.07510
0.00285
0.07547
0.15215
0.02271
0.12987
0.23258
0.05196
0.18117
0.30297
0.05452
0.21094
0.28022
0.04171
0.18394
0.28356
-0.00269
0.20168
0.27307
-0.00203
0.20028
0.27816
-0.00203
0.20396
0.20240
-0.00269
0.20052
0.27963
0.04171
0.19975
0.27274
0.05452
0.18330
0.28354
0.05196
0.21092
0.28009
0.02271
0.18153
0.30191
0.00285
0.12928
0.23174
-0.00853
0.07494
0.15139
0.00920
0.07590
0.00040
-0.02268
-0.01944
-0.02794
-0.08121
-0.07801
0.00005
-0.00747
0.04317
0.00016
-0.00820
0.04405
-0.06092
-0.00457
-0.04134
-0.06321
-0.00480
-0.04064
-0.01657
-0.07614
-0.01468
-0.07679
-0.00274
0.02294
0.09845
-0.00210
0.02184
0.09908
0.01095
0.09024
0.17015
0.01194
0.08984
0.16850
0.03605
0.24497
0.14537
0.03589
0.24277
0.14616
0.05994
0.19741
0.28319
0.06023
0.19654
0.28534
0.03742
0.22250
0.28345
0.03731
0.21998
0.28448
0.00023
0.21297
0.26032
0.00060
0.21259
0.25966
-0.00108
0.25226
0.20345
-0.00099
0.25258
0.20346
-0.00233
0.19880
0.18775
0.19640
0.19109
-0.00600
-0.10189
-0.04680
-0.00320
-0.10308
-0.04758
-0.00381
-0.03972
0.01890
-0.00259
-0.04039
0.02023
-0.00154
-0.00092
0.06192
-0.00050
-0.00336
0.06391
-0.01076
-0.07083
0.01269
-0.01128
-0.07195
0.01308
-0.03075
-0.03460
-0.02929
-0.03622
0.00276
0.02753
0.11092
0.00474
0.02561
0.11172
0.02211
0.04081
0.15410
0.23669
0.02305
0.04028
0.15205
0.23791
0.09974
0.17356
0.09642
0.17870
0.05602
0.20766
0.30360
0.05673
0.20616
0.30707
0.03271
0.29893
0.21311
0.03424
0.30035
0.21258
-0.00088
-0.00034
0.19870
0.17522
-0.00159
-0.00097
0.19738
0.17681
0.21141
0.22128
0.20836
0.22487
0.18654
0.18469
-0.00555
-0.03195
0.03818
-0.00521
-0.03148
0.04006
-0.03371
-0.10877
0.00393
-0.03287
-0.10954
0.00437
0.00259
0.00080
0.07851
0.00452
-0.00103
0.07588
-0.01690
-0.07020
0.02358
-0.01686
-0.07205
0.02295
0.01301
0.02879
0.12790
0.01371
0.02819
0.12833
0.03013
0.09597
0.17801
0.02997
0.09620
0.17750
0.00196
0.03788
0.19384
0.20288
0.00249
0.03831
0.19363
0.20337
0.04639
0.14882
0.24041
0.04699
0.14984
0.24057
0.00304
0.19305
0.15594
0.00242
0.19216
0.15528
0.19718
0.29974
0.19660
0.29801
-0.05930
-0.00893
-0.05924
-0.00957
0.00246
0.17890
0.15995
0.17958
0.16093
-0.00651
-0.03777
0.04609
-0.00492
-0.03908
0.04578
-0.03431
-0.10786
0.00979
-0.03305
-0.10815
0.00948
0.00724
-0.00239
0.08528
0.00784
-0.00297
0.08568
-0.01707
-0.07279
0.03311
-0.01638
-0.07390
0.03121
0.01596
0.02428
0.12732
0.01676
0.02330
0.12742
0.03283
0.08114
0.17660
0.03388
0.08046
0.17493
0.03299
0.00350
0.19259
0.15173
0.03364
0.00340
0.19368
0.15150
0.04234
0.12556
0.22303
0.04264
0.12501
0.22365
0.27053
0.16709
0.26931
0.16849
0.00433
0.17461
0.15467
0.00427
0.17447
0.15270
0.16378
0.16227
-0.05789
-0.01749
-0.05727
-0.01754
-0.00300
-0.03760
0.05746
-0.00279
-0.03769
0.05671
-0.03706
-0.11393
0.01040
-0.03609
-0.11410
0.00965
0.01056
-0.00843
0.08987
0.01140
-0.00957
0.09088
-0.01889
-0.07597
0.03104
-0.01801
-0.07643
0.02957
0.01876
0.01611
0.12914
0.02055
0.01426
0.12934
0.03150
0.06306
0.16903
0.03211
0.06156
0.17007
0.04250
0.03032
0.13021
0.19805
0.04306
0.02992
0.12845
0.20160
0.09878
0.21256
0.09768
0.21419
0.00397
0.18056
0.12314
0.00409
0.17560
0.12373
0.00350
0.14903
0.14115
0.14994
0.14266
-0.05488
-0.05558
-0.00272
-0.04722
0.05191
-0.00174
-0.04869
0.05121
-0.03074
-0.00027
-0.02765
-0.00357
0.01207
-0.02024
0.08785
0.01410
-0.02103
0.08717
0.01761
0.00011
0.11468
0.01902
-0.00148
0.11459
0.03320
0.04147
0.15015
0.03453
0.04002
0.15255
0.03294
0.07302
0.16511
0.03159
0.07334
0.16435
-0.01248
-0.08588
0.02168
-0.01192
-0.08757
0.02100
0.00250
0.14075
0.09746
0.00264
0.14271
0.09798
0.00304
0.15427
0.11972
0.00317
0.15599
0.12005
0.13095
0.12883
0.00032
-0.05659
0.04997
0.00169
-0.05824
0.04890
-0.02189
-0.03746
-0.02213
-0.03766
0.01557
-0.03228
0.07461
0.01724
-0.03335
0.07245
0.01760
-0.01620
0.10868
0.01807
-0.01677
0.10881
0.03473
0.01613
0.12468
0.03350
0.01604
0.12482
-0.01712
-0.10471
0.00691
-0.01574
-0.10654
0.00439
0.03175
0.03829
0.12897
0.03071
0.03882
0.12839
0.00449
0.13198
0.09616
0.00452
0.13164
0.09453
0.00454
0.13107
0.10889
0.13119
0.10871
0.00472
-0.07064
0.01385
0.00520
-0.07103
0.01234
0.01826
-0.05176
0.04671
0.01881
-0.05208
0.04625
-0.02955
-0.02901
0.02742
-0.03477
0.08030
0.02737
-0.03487
0.08011
0.02452
-0.01134
0.09178
0.02408
-0.01098
0.08937
-0.00222
-0.03286
-0.00216
-0.03299
0.00947
0.05510
0.06783
0.00895
0.05526
0.06696
0.00609
0.08999
0.08188
0.00599
0.09073
0.08225
0.09005
0.08952
0.00759
-0.09487
-0.01288
0.00791
-0.09505
-0.01485
0.00457
-0.07861
0.02743
0.00474
-0.07950
0.02822
0.01775
-0.05321
0.06059
0.01950
-0.05384
0.06055
0.02505
-0.02983
0.06387
0.02581
-0.03097
0.06238
0.00983
0.06163
0.05478
0.00922
0.06238
0.05467
0.00825
0.06755
0.06439
0.06762
0.06547
-0.01545
-0.06967
-0.01332
-0.06991
-0.00850
-0.11555
-0.04844
-0.00596
-0.11552
-0.04968
-0.00464
-0.09682
-0.00174
-0.00223
-0.09757
-0.00056
0.01300
0.01562
-0.07062
0.01337
0.01293
-0.07075
0.01337
-0.00528
0.03433
0.01336
-0.00476
0.03329
0.01191
0.03954
0.03626
0.01108
0.03990
0.03546
0.04063
0.04253
-0.03057
-0.03004
-0.01455
-0.01574
0.00745
0.01737
0.00818
-0.10204
0.00980
0.01831
0.00619
-0.10218
-0.05690
-0.05635
0.01741
-0.00777
0.00174
0.01672
-0.00814
0.00109
0.01606
0.00050
0.00273
0.00153
0.00108
-0.00406
0.02505
-0.03091
-0.00299
0.02518
-0.03133
0.01685
-0.05648
-0.03322
0.01753
-0.05745
-0.03427
-0.04432
-0.04317
0.00920
0.01010
0.01408
0.01013
0.00705
0.01248
0.01572
0.00743
0.01277
0.01541
0.00656
0.01720
0.00658
0.01701
0.01585
0.01659
0.03714
0.03766
0.02225
0.04086
0.03069
0.02337
0.04023
0.03044
0.01762
0.01724
-0.01267
0.01921
0.01628
-0.01232
0.04869
0.04299
0.04939
0.04246
0.01431
0.01669
0.05764
0.04851
0.01669
0.05759
0.04850
0.01728
0.06563
0.04401
0.01787
0.06548
0.04366
0.03051
0.00030
-0.02025
0.06059
0.02946
0.00256
-0.02013
0.05857
0.05580
0.06169
0.05572
0.06215
-0.01955
-0.04994
0.01345
-0.01926
-0.04904
0.01308
-0.06607
-0.01117
-0.06532
-0.01147
0.01119
0.01081
0.06506
0.06569
0.01205
0.07617
0.05898
0.01230
0.07554
0.05945
0.02899
0.07661
0.04634
0.02892
0.07660
0.04690
0.00616
0.05086
0.10518
0.00696
0.04998
0.10400
0.00180
-0.00486
0.08493
0.00253
-0.00474
0.08428
-0.00534
-0.02899
0.04658
-0.00485
-0.02841
0.04509
-0.04694
0.02876
-0.04642
0.02850
0.00694
0.00770
0.08051
0.07394
0.00752
0.08035
0.07427
0.01263
0.08737
0.06125
0.01217
0.08765
0.06078
0.02795
0.08836
0.11338
0.02827
0.08859
0.11275
0.01753
0.01425
0.13667
0.01715
0.01414
0.13581
0.01880
0.01257
0.10138
0.01862
0.01282
0.10093
0.00761
-0.00274
0.07129
0.00746
-0.00206
0.07163
0.00456
0.00449
0.09787
0.09818
0.00706
0.11451
0.08494
0.00593
0.11420
0.08499
0.03132
0.12169
0.06914
0.03182
0.12063
0.06995
-0.01640
-0.01581
0.05629
-0.01443
-0.01524
0.05608
0.03607
0.11160
0.16980
0.03579
0.11144
0.16957
0.02939
0.05525
0.15071
0.02929
0.05500
0.15032
-0.05168
0.01423
-0.05149
0.01469
0.01910
0.01930
0.12094
0.01797
0.01965
0.12095
-0.00063
0.00840
0.09223
-0.00026
0.00825
0.09262
0.00210
0.00279
0.11505
0.10282
0.00258
0.11449
0.10291
0.00523
0.13115
0.09078
0.00504
0.13104
0.09069
0.03864
0.13942
0.17627
0.03772
0.13944
0.17634
-0.01455
-0.01207
0.06475
-0.01330
-0.01201
0.06482
0.03412
0.09158
0.20456
0.03390
0.09116
0.20518
0.03019
0.07354
0.16561
0.02977
0.07326
0.16569
0.01513
0.03534
0.12842
0.01479
0.03524
0.12825
-0.03971
0.03717
-0.03842
0.03567
0.00279
0.02031
0.09375
0.00194
0.02083
0.09392
0.00160
0.00147
0.12389
0.12382
0.00123
0.13622
0.11317
0.00111
0.13634
0.11281
0.03577
0.15010
0.09848
0.03577
0.14967
0.09851
-0.01159
0.00194
0.05819
-0.01147
0.00216
0.05797
0.04281
0.25643
0.15380
0.04201
0.25577
0.15435
0.03417
0.12291
0.21528
0.03363
0.12282
0.21517
0.02825
0.09798
0.16929
0.02761
0.09830
0.16924
0.01401
0.04736
0.12590
0.01309
0.04775
0.12667
-0.04019
-0.02156
0.03794
-0.03980
-0.02197
0.03656
0.00069
0.03214
0.08316
0.00004
0.03234
0.08351
-0.05985
0.00352
-0.05904
0.00278
0.00116
0.00027
0.14616
0.13840
0.00028
0.14618
0.13787
-0.00136
0.15808
0.12897
-0.00157
0.15834
0.12853
0.04417
0.04981
0.16199
0.28412
0.04390
0.04890
0.16265
0.28328
0.25193
0.17464
0.25114
0.17501
0.03522
0.14459
0.22164
0.03453
0.14472
0.22089
0.02545
0.11440
0.16575
0.02454
0.11484
0.16597
-0.01904
0.01285
0.05271
-0.01926
0.01340
0.05244
0.01061
0.05744
0.11287
0.00979
0.05755
0.11345
-0.04193
-0.01797
0.02910
-0.04096
-0.01835
0.02849
-0.00309
0.03975
0.07126
-0.00402
0.04055
0.07126
-0.05407
0.00278
-0.05425
0.00273
-0.00009
-0.00023
0.15387
0.15351
-0.00110
0.16720
0.14435
-0.00142
0.16793
0.14396
0.06202
0.03328
0.36999
0.18952
0.06126
0.03331
0.36962
0.18987
0.04905
0.19849
0.28806
0.04857
0.19814
0.28844
0.17901
0.18205
0.17885
0.18172
0.03347
0.17074
0.21590
0.03300
0.17104
0.21562
0.02120
0.13210
0.15285
0.02033
0.13303
0.15307
-0.01939
0.01607
0.04092
-0.01870
0.01633
0.04042
0.00647
0.05662
0.09697
0.00589
0.05737
0.09575
-0.04611
-0.01619
0.02181
-0.04561
-0.01654
0.02210
-0.00245
0.03932
0.05213
-0.00294
0.03953
0.05259
-0.00146
-0.00137
0.17847
0.16841
-0.00165
0.17877
0.16829
-0.04963
-0.00281
-0.04981
-0.00310
0.06467
0.04727
0.19486
0.33930
0.06387
0.04718
0.19328
0.34016
-0.00076
0.21093
0.18987
-0.00078
0.21055
0.19026
0.04589
0.20693
0.27902
0.04487
0.20706
0.27867
0.20293
0.32589
0.20258
0.32536
0.02661
0.20523
0.17471
0.02593
0.20625
0.17483
0.01295
0.13274
0.13792
0.01264
0.13255
0.13796
-0.01729
0.01402
0.02762
-0.01671
0.01520
0.02738
0.00362
0.05530
0.07592
0.00349
0.05509
0.07630
-0.03215
-0.01968
-0.00303
-0.03135
-0.01954
-0.00393
0.00141
0.03463
0.03520
0.00050
0.03486
0.03556
-0.00382
-0.00387
0.18787
0.18792
-0.00489
0.04848
0.19873
0.25570
-0.00506
0.04959
0.19976
0.25353
0.19637
0.25618
0.19698
0.25500
0.07337
0.21032
0.27962
0.07170
0.21267
0.27922
0.05987
0.20633
0.30299
0.05900
0.20594
0.30375
0.03597
0.01587
0.16892
0.19145
0.03571
0.01605
0.16918
0.19081
0.21000
0.26950
0.20970
0.26939
0.00673
0.12318
0.12012
0.00604
0.12393
0.11970
-0.04817
-0.01215
-0.04804
-0.01240
0.00619
0.00503
-0.00818
0.00663
0.00560
-0.00782
0.00532
0.04481
0.06225
0.00560
0.04547
0.06157
0.01211
0.02217
0.01469
0.01063
0.02310
0.01403
-0.01622
-0.02217
-0.03977
-0.01556
-0.02197
-0.04015
-0.00518
-0.00461
0.28413
0.20163
-0.00479
0.20285
0.28268
-0.00289
0.28486
0.19910
-0.00309
0.20065
0.28353
0.05482
0.29612
0.19676
0.05427
0.19812
0.29507
0.07861
0.27330
0.22408
0.07900
0.22407
0.27165
0.05430
0.30413
0.22040
0.05363
0.21939
0.30411
0.02483
0.25500
0.19768
0.02471
0.19853
0.25454
0.00463
0.17792
0.14940
0.00428
0.14926
0.17808
0.00602
0.10610
0.10216
0.00557
0.10228
0.10568
-0.03341
-0.01411
-0.03398
-0.01411
0.00082
0.00446
-0.02100
0.00578
-0.00060
-0.02100
0.01567
0.02930
0.05398
0.02983
0.01518
0.05398
-0.00060
-0.03398
-0.04015
0.01518
0.00578
0.01403
-0.00089
0.02983
0.10568
0.01306
0.10228
0.17808
0.04405
0.14926
0.25454
0.08044
0.19853
0.30411
0.05479
0.21939
0.27165
-0.00007
0.22407
0.29507
-0.00294
0.19812
0.28353
-0.00326
0.20065
0.28268
-0.00326
0.20285
0.20163
-0.00294
0.19910
0.28413
-0.00007
0.19676
0.28486
0.05479
0.22408
0.29612
0.08044
0.22040
0.27330
0.04405
0.19768
0.30413
0.01306
0.14940
0.25500
-0.00089
0.10216
0.17792
0.02930
0.10610
0.01567
0.00446
0.01469
0.00082
-0.03341
-0.03977
0.00557
0.02310
0.06157
0.00602
0.02217
0.06225
-0.02197
0.01063
-0.00782
-0.02217
0.01211
-0.00818
-0.01556
-0.01240
-0.01622
-0.01215
0.00428
0.04547
0.11970
0.00463
0.04481
0.12012
0.02471
0.12393
0.19081
0.02483
0.12318
0.19145
0.05363
0.26939
0.16918
0.05430
0.26950
0.16892
0.07900
0.20970
0.30375
0.07861
0.21000
0.30299
0.05427
0.20594
0.27922
0.05482
0.20633
0.27962
-0.00309
0.21267
0.25353
-0.00289
0.21032
0.25570
-0.00479
0.25500
0.19976
-0.00461
0.25618
0.19873
-0.00518
0.19698
0.18792
0.19637
0.18787
0.00560
-0.04804
-0.00393
0.00503
-0.04817
-0.00303
0.00560
0.00663
0.03556
0.00532
0.00619
0.03520
0.00604
0.03486
0.07630
0.00673
0.03463
0.07592
0.00050
-0.01954
0.02738
0.00141
-0.01968
0.02762
-0.03135
-0.00310
-0.03215
-0.00281
0.01605
0.05509
0.13796
0.01587
0.05530
0.13792
0.03571
0.05900
0.17483
0.27867
0.03597
0.05987
0.17471
0.27902
0.13255
0.20625
0.13274
0.20523
0.07170
0.20706
0.34016
0.07337
0.20693
0.33930
0.04959
0.32536
0.19328
0.04848
0.32589
0.19486
-0.00506
-0.00387
0.19026
0.16829
-0.00489
-0.00382
0.18987
0.16841
0.20258
0.21055
0.20293
0.21093
0.17877
0.17847
0.00349
0.01520
0.05259
0.00362
0.01402
0.05213
-0.01671
-0.04981
0.02210
-0.01729
-0.04963
0.02181
0.01264
0.03953
0.09575
0.01295
0.03932
0.09697
-0.00294
-0.01654
0.04042
-0.00245
-0.01619
0.04092
0.02593
0.05737
0.15307
0.02661
0.05662
0.15285
0.04487
0.13303
0.21562
0.04589
0.13210
0.21590
-0.00078
0.04718
0.18172
0.18987
-0.00076
0.04727
0.18205
0.18952
0.06387
0.17104
0.28844
0.06467
0.17074
0.28806
-0.00165
0.17885
0.14396
-0.00137
0.17901
0.14435
0.19814
0.36962
0.19849
0.36999
-0.04561
0.00273
-0.04611
0.00278
-0.00146
0.16793
0.15351
0.16720
0.15387
0.00589
0.01633
0.07126
0.00647
0.01607
0.07126
-0.01870
-0.05425
0.02849
-0.01939
-0.05407
0.02910
0.02033
0.04055
0.11345
0.02120
0.03975
0.11287
-0.00402
-0.01835
0.05244
-0.00309
-0.01797
0.05271
0.03300
0.05755
0.16597
0.03347
0.05744
0.16575
0.04857
0.11484
0.22089
0.04905
0.11440
0.22164
0.03331
-0.00142
0.17501
0.12853
0.03328
-0.00110
0.17464
0.12897
0.06126
0.14472
0.28328
0.06202
0.14459
0.28412
0.25114
0.16265
0.25193
0.16199
-0.00023
0.15834
0.13787
-0.00009
0.15808
0.13840
0.14618
0.14616
-0.04096
0.00278
-0.04193
0.00352
0.00979
0.01340
0.08351
0.01061
0.01285
0.08316
-0.01926
-0.05904
0.03656
-0.01904
-0.05985
0.03794
0.02454
0.03234
0.12667
0.02545
0.03214
0.12590
0.00004
-0.02197
0.05797
0.00069
-0.02156
0.05819
0.03453
0.04775
0.16924
0.03522
0.04736
0.16929
0.04890
0.09830
0.21517
0.04981
0.09798
0.21528
0.04390
-0.00157
0.15435
0.09851
0.04417
-0.00136
0.15380
0.09848
0.12282
0.25577
0.12291
0.25643
0.00028
0.14967
0.11281
0.00027
0.15010
0.11317
0.00116
0.13634
0.12382
0.13622
0.12389
-0.03980
-0.04019
0.01309
0.00216
0.09392
0.01401
0.00194
0.09375
-0.01147
0.03567
-0.01159
0.03717
0.02761
0.02083
0.12825
0.02825
0.02031
0.12842
0.03363
0.03524
0.16569
0.03417
0.03534
0.16561
0.04201
0.07326
0.20518
0.04281
0.07354
0.20456
0.03577
0.09116
0.17634
0.03577
0.09158
0.17627
0.00194
-0.03842
0.06482
0.00279
-0.03971
0.06475
0.00111
0.13944
0.09069
0.00123
0.13942
0.09078
0.00147
0.13104
0.10291
0.00160
0.13115
0.10282
0.11449
0.11505
0.01479
-0.01201
0.09262
0.01513
-0.01207
0.09223
-0.01330
0.01469
-0.01455
0.01423
0.02977
0.00825
0.12095
0.03019
0.00840
0.12094
0.03390
0.01965
0.15032
0.03412
0.01930
0.15071
0.03772
0.05500