# vtk DataFile Version 3.0
Point representing Sub_cellular elem model
ASCII

DATASET UNSTRUCTURED_GRID
POINTS 3657 float
-52.44362 -3.02006 53.46161 
-52.41568 3.26791 53.50255 
-52.04867 -9.26786 53.08092 
-52.03564 9.56750 53.16670 
-49.22160 0.06710 57.36367 
-48.89378 -6.08651 57.05127 
-48.92232 6.24574 57.03531 
-49.42811 -16.83184 53.43307 
-49.28962 16.99971 53.53157 
-48.66092 -12.10812 56.53682 
-48.51442 12.32991 56.68308 
-45.38963 -3.01618 60.25821 
-45.41967 3.12001 60.25098 
-45.13968 -9.14955 59.96540 
-45.12145 9.18641 60.00207 
-45.74315 -19.90655 56.84057 
-45.64761 20.06606 56.88169 
-44.93721 -14.95849 59.03107 
-44.84063 15.03331 59.13148 
-46.48021 -24.28065 53.22298 
-46.39740 24.69095 53.54716 
-46.61254 -29.03747 49.77569 
-46.44249 29.44372 50.00431 
-41.87774 -0.00355 62.98133 
-41.82296 -6.11982 62.98699 
-41.80685 6.13175 63.01420 
-41.36615 -11.97490 62.35303 
-41.32312 12.01961 62.44553 
-41.27619 -17.87769 61.52649 
-41.21873 17.89093 61.62305 
-41.98937 -22.80701 58.98903 
-41.90628 22.93250 59.13690 
-42.86146 -27.67524 56.37478 
-42.71011 27.93375 56.54735 
-42.28862 -33.20527 53.44305 
-41.99145 33.51585 53.49837 
-38.22222 -3.01994 65.32514 
-38.18478 3.06316 65.35339 
-37.91771 -8.96009 65.08065 
-37.88379 8.93291 65.08555 
-37.51021 -14.63966 64.52017 
-37.48603 14.66157 64.56911 
-37.41797 -20.42804 63.33020 
-37.38170 20.52052 63.39819 
-38.20923 -25.42550 61.20354 
-38.07451 25.56924 61.33886 
-37.93658 -31.00239 58.86856 
-37.78817 31.13807 59.04304 
-34.79061 0.01341 67.64534 
-34.53582 -5.84689 67.36315 
-34.45256 5.84988 67.41105 
-34.05592 -11.71523 67.25851 
-34.05077 11.73303 67.28334 
-37.34724 -36.47680 56.16066 
-37.16605 36.66657 56.48786 
-33.72345 -17.40540 66.34170 
-33.74217 17.39768 66.38216 
-33.70971 -23.03546 65.15938 
-33.64058 23.05099 65.26435 
-36.83569 -41.12428 51.79713 
-36.67037 41.52053 52.19434 
-33.45903 -28.50432 63.16310 
-33.29396 28.56440 63.33654 
-33.04847 -34.14566 61.03389 
-32.87748 34.19055 61.23337 
-30.37105 -3.11570 69.69850 
-30.32675 3.06147 69.72614 
-29.92008 -8.97591 69.45825 
-29.92968 9.00585 69.51125 
-29.32797 -14.66656 69.05096 
-29.30246 14.64318 69.09734 
-32.30747 -39.46508 57.72428 
-32.16482 39.57537 57.91134 
-29.17951 -20.41260 68.03844 
-29.15770 20.33710 68.10982 
-29.76785 -25.42409 66.28950 
-29.66646 25.38471 66.42244 
-29.32587 -30.97433 64.33788 
-29.20041 31.00464 64.46702 
-31.78217 -44.48435 54.09840 
-31.35131 44.74674 54.43860 
-28.83077 -36.45619 61.84245 
-28.64239 36.53940 61.95406 
-25.89275 -0.01274 71.68301 
-25.90863 -6.23219 71.70434 
-25.87764 6.21120 71.72736 
-25.13191 -12.16584 71.20687 
-25.05049 12.10177 71.22286 
-28.02140 -41.82102 58.73118 
-27.85375 41.88337 58.89717 
-24.87082 -17.82972 70.61120 
-24.81779 17.74981 70.68115 
-25.24841 -22.80333 69.08110 
-25.18694 22.77859 69.16277 
-25.76316 -27.86689 67.45466 
-25.68858 27.89183 67.53896 
-25.18974 -33.31552 65.16926 
-25.11050 33.35881 65.29979 
-27.09577 -46.95853 54.79457 
-26.81870 47.08513 54.86150 
-24.56015 -38.86395 62.72080 
-24.40360 38.93842 62.83035 
-26.37914 -50.89730 49.38901 
-26.01913 51.22619 49.57670 
-21.44584 -3.14038 73.34122 
-21.37595 3.12077 73.32178 
-21.10982 -9.29692 73.00416 
-21.09615 9.32049 73.01543 
-20.93054 -20.09432 71.38134 
-20.91358 20.08264 71.45298 
-20.57741 -15.01785 72.44549 
-20.48915 15.03928 72.49669 
-21.32337 -25.16785 69.89772 
-21.22609 25.17165 69.94170 
-21.63158 -30.12788 67.98071 
-21.56276 30.18383 68.03789 
-23.48799 -44.22221 59.22132 
-23.30880 44.33862 59.29618 
-21.00645 -35.57896 65.68915 
-20.85287 35.64987 65.76738 
-22.56671 -49.48516 54.95546 
-22.31345 49.60556 55.08933 
-20.01765 -41.10765 62.78149 
-19.84262 41.13699 62.90230 
-21.35769 -53.66420 49.68362 
-20.95744 53.86399 49.88230 
-17.00690 -0.01581 74.91871 
-16.80043 -6.21658 74.56167 
-16.82039 6.18715 74.55957 
-16.75996 -17.41618 73.21418 
-16.66494 17.40217 73.26443 
-17.04407 -22.51912 72.13505 
-16.99496 22.50805 72.18088 
-16.59000 -12.33916 74.17715 
-16.52015 12.29196 74.21160 
-17.24002 -27.47059 70.37426 
-17.21235 27.46953 70.42420 
-17.53755 -32.41748 68.45928 
-17.46390 32.46814 68.50784 
-18.87705 -46.47689 59.21357 
-18.75271 46.50799 59.31376 
-16.56848 -37.84117 65.82342 
-16.37241 37.86781 65.91210 
-17.69917 -51.45267 54.84632 
-17.45217 51.56131 54.94070 
-15.41564 -43.36654 62.98176 
-15.25988 43.41795 63.04669 
-12.61088 -3.17428 75.69030 
-12.56848 3.14624 75.73917 
-16.29894 -55.82155 49.68916 
-15.88593 56.03057 49.92059 
-12.69960 -19.74565 73.74667 
-12.66773 19.74694 73.77006 
-12.42360 -9.41524 75.33035 
-12.41529 9.33250 75.33858 
-12.85994 -24.76704 72.33152 
-12.78686 24.72120 72.38112 
-12.43756 -14.66188 74.71616 
-12.36856 14.60193 74.74957 
-12.96959 -29.75326 70.52701 
-12.93021 29.70062 70.59374 
-13.36145 -34.47840 68.31166 
-13.23754 34.45029 68.39418 
-14.12682 -48.49644 59.14549 
-14.02444 48.54882 59.20234 
-12.13623 -39.89942 65.66366 
-12.06022 39.92606 65.66040 
-12.96471 -53.51736 54.84458 
-12.64930 53.61611 54.90654 
-10.92584 -45.23969 62.40024 
-10.69094 45.30505 62.50532 
-8.37036 -0.00315 76.47921 
-8.30613 -11.68429 75.81106 
-8.27404 11.67502 75.79721 
-8.31874 -6.35174 76.44895 
-8.25309 6.33502 76.46209 
-8.43565 -16.84456 75.18217 
-8.38785 16.83906 75.20074 
-8.58890 -21.86405 73.89201 
-8.48504 21.87351 73.91753 
-8.76136 -31.67428 70.38080 
-8.66358 31.73507 70.42703 
-8.58542 -26.95049 72.46315 
-8.51676 26.94511 72.49067 
-8.99565 -36.50344 68.23833 
-8.92540 36.59071 68.23407 
-10.31729 -57.11442 50.92322 
-9.86506 57.14283 50.89706 
-9.55234 -50.39728 58.63348 
-9.41877 50.39940 58.71401 
-7.73431 -41.80655 65.18152 
-7.58863 41.86167 65.20003 
-6.32695 -47.11679 62.11508 
-6.05862 47.19936 62.11504 
-6.70103 -54.04791 55.58302 
-6.44582 54.05095 55.65003 
-4.10698 -3.17343 76.92574 
-4.05313 3.20540 76.93348 
-4.16490 -8.59352 76.55158 
-4.11817 8.58367 76.55615 
-4.17157 -13.91684 75.94686 
-4.13073 13.88682 75.98344 
-4.27847 -18.93667 75.08679 
-4.23389 18.96334 75.08841 
-4.28697 -23.88764 73.78152 
-4.17824 23.93108 73.78006 
-4.30540 -28.72846 72.08776 
-4.26552 28.68173 72.08723 
-4.43549 -33.47620 69.99485 
-4.37863 33.50072 70.00227 
-4.57753 -38.26676 67.58479 
-4.48102 38.31825 67.57906 
-3.66077 -57.53004 51.97278 
-3.28760 57.55565 51.95329 
-3.33533 -50.70880 59.30456 
-3.12253 50.74761 59.23388 
-3.10111 -43.52384 64.60557 
-2.91306 43.55390 64.60826 
-0.12450 -54.33819 56.30625 
-0.10861 -47.24219 62.11892 
-0.06520 -39.94685 66.98640 
-0.02186 -35.15578 69.36379 
0.00401 -30.41794 71.66688 
-0.06180 -25.53214 73.37305 
-0.01789 -20.83263 74.90009 
-0.00722 -15.86196 75.81283 
-0.00724 -10.76289 76.62694 
-0.04706 -5.35053 76.96862 
0.00000 0.00000 77.27203 
0.04706 5.35053 76.96862 
0.00724 10.76289 76.62694 
0.00722 15.86196 75.81283 
0.01789 20.83263 74.90009 
0.06180 25.53214 73.37305 
-0.00401 30.41794 71.66688 
0.02186 35.15578 69.36379 
0.06520 39.94685 66.98640 
0.10861 47.24219 62.11892 
0.12450 54.33819 56.30625 
2.91306 -43.55390 64.60826 
3.10111 43.52384 64.60557 
3.12253 -50.74761 59.23388 
3.33533 50.70880 59.30456 
3.28760 -57.55565 51.95329 
3.66077 57.53004 51.97278 
4.48102 -38.31825 67.57906 
4.57753 38.26676 67.58479 
4.37863 -33.50072 70.00227 
4.43549 33.47620 69.99485 
4.26552 -28.68173 72.08723 
4.30540 28.72846 72.08776 
4.17824 -23.93108 73.78006 
4.28697 23.88764 73.78152 
4.23389 -18.96334 75.08841 
4.27847 18.93667 75.08679 
4.13073 -13.88682 75.98344 
4.17157 13.91684 75.94686 
4.11817 -8.58367 76.55615 
4.16490 8.59352 76.55158 
4.05313 -3.20540 76.93348 
4.10698 3.17343 76.92574 
6.44582 -54.05095 55.65003 
6.70103 54.04791 55.58302 
6.05862 -47.19936 62.11504 
6.32695 47.11679 62.11508 
7.58863 -41.86167 65.20003 
7.73431 41.80655 65.18152 
9.41877 -50.39940 58.71401 
9.55234 50.39728 58.63348 
9.86506 -57.14283 50.89706 
10.31729 57.11442 50.92322 
8.92540 -36.59071 68.23407 
8.99565 36.50344 68.23833 
8.51676 -26.94511 72.49067 
8.58542 26.95049 72.46315 
8.66358 -31.73507 70.42703 
8.76136 31.67428 70.38080 
8.48504 -21.87351 73.91753 
8.58890 21.86405 73.89201 
8.38785 -16.83906 75.20074 
8.43565 16.84456 75.18217 
8.25309 -6.33502 76.46209 
8.31874 6.35174 76.44895 
8.27404 -11.67502 75.79721 
8.30613 11.68429 75.81106 
8.37036 0.00315 76.47921 
10.69094 -45.30505 62.50532 
10.92584 45.23969 62.40024 
12.64930 -53.61611 54.90654 
12.96471 53.51736 54.84458 
12.06022 -39.92606 65.66040 
12.13623 39.89942 65.66366 
14.02444 -48.54882 59.20234 
14.12682 48.49644 59.14549 
13.23754 -34.45029 68.39418 
13.36145 34.47840 68.31166 
12.93021 -29.70062 70.59374 
12.96959 29.75326 70.52701 
12.36856 -14.60193 74.74957 
12.43756 14.66188 74.71616 
12.78686 -24.72120 72.38112 
12.85994 24.76704 72.33152 
12.41529 -9.33250 75.33858 
12.42360 9.41524 75.33035 
12.66773 -19.74694 73.77006 
12.69960 19.74565 73.74667 
15.88593 -56.03057 49.92059 
16.29894 55.82155 49.68916 
12.56848 -3.14624 75.73917 
12.61088 3.17428 75.69030 
15.25988 -43.41795 63.04669 
15.41564 43.36654 62.98176 
17.45217 -51.56131 54.94070 
17.69917 51.45267 54.84632 
16.37241 -37.86781 65.91210 
16.56848 37.84117 65.82342 
18.75271 -46.50799 59.31376 
18.87705 46.47689 59.21357 
17.46390 -32.46814 68.50784 
17.53755 32.41748 68.45928 
17.21235 -27.46953 70.42420 
17.24002 27.47059 70.37426 
16.52015 -12.29196 74.21160 
16.59000 12.33916 74.17715 
16.99496 -22.50805 72.18088 
17.04407 22.51912 72.13505 
16.66494 -17.40217 73.26443 
16.75996 17.41618 73.21418 
16.82039 -6.18715 74.55957 
16.80043 6.21658 74.56167 
17.00690 0.01581 74.91871 
20.95744 -53.86399 49.88230 
21.35769 53.66420 49.68362 
19.84262 -41.13699 62.90230 
20.01765 41.10765 62.78149 
22.31345 -49.60556 55.08933 
22.56671 49.48516 54.95546 
20.85287 -35.64987 65.76738 
21.00645 35.57896 65.68915 
23.30880 -44.33862 59.29618 
23.48799 44.22221 59.22132 
21.56276 -30.18383 68.03789 
21.63158 30.12788 67.98071 
21.22609 -25.17165 69.94170 
[...]
CELL_DATA 40900
SCALARS Strain double 1
LOOKUP_TABLE default
0.01088
0.00734
-0.06702
-0.05395
0.00885
-0.06609
-0.05851
-0.08219
-0.07378
-0.08016
-0.07036
0.00954
0.01021
0.01319
0.01237
0.00945
0.01222
0.00581
0.01238
0.01316
0.00606
-0.03561
-0.11730
-0.14361
-0.03779
-0.11974
-0.14346
0.00129
-0.03071
-0.00048
-0.03694
0.00372
0.00661
0.08195
0.07814
0.00381
0.08412
0.07997
-0.00046
0.08921
0.06560
0.00050
0.08883
0.06992
-0.03113
-0.07564
-0.11249
-0.05929
-0.02794
-0.06641
-0.11074
-0.06105
0.01226
-0.01655
0.01058
-0.01895
-0.07435
-0.13882
-0.09575
-0.07380
-0.13906
-0.10152
-0.17088
-0.12386
-0.17092
-0.12710
-0.00048
0.00089
0.13277
0.13602
0.00031
0.13495
0.11756
0.00123
0.13499
0.11647
0.00564
0.14310
0.12343
0.00336
0.13690
0.12243
-0.03402
-0.04620
0.06504
-0.03010
-0.04772
0.06709
-0.04665
-0.07105
-0.01208
-0.04155
-0.07266
-0.00884
-0.04451
-0.10336
-0.05059
-0.04117
-0.10220
-0.05313
-0.14102
-0.09362
-0.13956
-0.09850
-0.00519
-0.00017
0.18788
0.17061
-0.00324
0.18421
0.17328
0.01198
0.18178
0.17027
0.01346
0.18586
0.17227
0.01719
0.12401
0.16755
0.01938
0.12190
0.16544
-0.02203
-0.01678
0.09627
-0.02046
-0.01730
0.09623
-0.01765
-0.03902
0.04477
-0.01805
-0.04014
0.04463
-0.03624
-0.07043
-0.01420
-0.03456
-0.06860
-0.01467
-0.00614
-0.00724
0.21678
0.22085
-0.00253
0.27076
0.21045
-0.00203
0.26656
0.20938
0.01885
0.25217
0.32455
0.01730
0.25466
0.32697
-0.08248
-0.11469
-0.04967
-0.07608
-0.11416
-0.05168
0.01668
0.07439
0.23833
0.01841
0.07651
0.23971
0.00071
0.05007
0.17508
0.00296
0.04831
0.17627
-0.15102
-0.08467
-0.15223
-0.08149
-0.01084
-0.00977
0.09256
-0.01228
-0.01026
0.09185
-0.03551
-0.03818
0.02836
-0.03409
-0.03960
0.03349
-0.00705
-0.00821
0.27672
0.26954
-0.00434
0.27359
0.26836
0.03354
0.33010
0.23112
0.03247
0.32521
0.23089
0.04729
0.29648
0.39318
0.04519
0.29548
0.39598
-0.06702
-0.08722
-0.03174
-0.05886
-0.08529
-0.03118
0.00801
0.14868
0.30831
0.00829
0.15024
0.31039
0.00767
0.10006
0.18386
0.01020
0.09803
0.18380
-0.01421
0.01631
0.10340
-0.01184
0.01452
0.10017
-0.13028
-0.05173
-0.13503
-0.06157
-0.02808
-0.02109
0.02730
-0.03014
-0.02397
0.02534
-0.00502
-0.00488
0.30079
0.30182
-0.00415
0.30721
0.27075
-0.00588
0.30368
0.26858
0.02569
0.34271
0.54745
0.02423
0.34387
0.54398
-0.06350
-0.07650
-0.01327
-0.06017
-0.07701
-0.00887
0.03990
0.53512
0.26736
0.04145
0.52598
0.27266
0.01285
0.21292
0.32936
0.01417
0.21012
0.33428
0.00927
0.14205
0.22154
0.00785
0.14444
0.22210
-0.00914
0.04620
0.10192
-0.00754
0.04568
0.10924
-0.11602
-0.12826
-0.03938
-0.11155
-0.13021
-0.04075
-0.02722
-0.00176
0.03702
-0.02555
-0.00110
0.03826
-0.17007
-0.02857
-0.17207
-0.03216
-0.00349
-0.00347
0.36476
0.33838
-0.00164
0.36237
0.33596
0.05176
0.36059
0.32004
0.05300
0.35508
0.32788
0.06370
0.04144
0.36889
0.53154
0.05975
0.04323
0.37345
0.53686
0.79227
0.40370
0.79907
0.39563
0.02182
0.28289
0.35586
0.02275
0.27923
0.34918
0.00777
0.17875
0.18943
0.00843
0.17682
0.19012
-0.05130
-0.06803
-0.01921
-0.05178
-0.06448
-0.02316
-0.00198
0.05813
0.08567
-0.00419
0.05492
0.08783
-0.10554
-0.11987
-0.03624
-0.10245
-0.12066
-0.03587
-0.01653
0.00013
0.00193
-0.01737
0.00099
0.00266
-0.16976
-0.02680
-0.17380
-0.02627
-0.00070
-0.00066
0.34219
0.35019
-0.00411
0.38213
0.33126
-0.00496
0.39277
0.33679
0.06337
0.04902
0.88172
0.45996
0.06323
0.05006
0.86690
0.45128
0.05044
0.44436
0.60444
0.04989
0.44199
0.61092
0.39723
0.40169
0.38665
0.40257
0.01867
0.33893
0.34529
0.02030
0.34091
0.34801
0.00949
0.21120
0.18858
0.00881
0.20937
0.19243
-0.04793
-0.06794
-0.03646
-0.04429
-0.06730
-0.03597
0.00033
0.06125
0.06397
0.00028
0.05981
0.06045
-0.09938
-0.12704
-0.05521
-0.09661
-0.12856
-0.05169
-0.00973
0.00532
-0.01482
-0.01028
0.00481
-0.01193
0.00051
-0.00011
0.39479
0.39020
-0.00238
0.38768
0.38930
-0.17730
-0.07786
-0.18179
-0.07673
0.07106
0.04686
0.49455
0.89815
0.06720
0.05021
0.49523
0.91043
-0.00228
0.50698
0.42741
-0.00165
0.50051
0.43947
0.04442
0.47438
0.58725
0.04345
0.48111
0.58292
0.44077
0.75312
0.43621
0.74083
0.02149
0.34008
0.35205
0.02088
0.33856
0.35632
0.00619
0.20745
0.15047
0.00863
0.20670
0.14765
-0.03686
-0.06595
-0.06272
-0.03244
-0.06250
-0.06301
0.00254
0.05080
0.02370
0.00322
0.04981
0.02677
-0.04453
-0.12974
-0.12469
-0.04027
-0.12900
-0.12758
0.00566
-0.01141
-0.05935
0.00287
-0.01312
-0.05639
0.00014
0.00015
0.41319
0.41782
-0.00022
0.06758
0.42569
0.58311
0.00085
0.06559
0.42875
0.59259
0.41531
0.58037
0.41722
0.57560
0.10552
0.47008
0.75091
0.10555
0.46910
0.74787
0.06157
0.51942
0.87423
0.06094
0.51169
0.86920
0.03923
0.01022
0.32455
0.30857
0.04020
0.01160
0.31564
0.30783
0.45868
0.61901
0.46577
0.62239
0.00380
0.17248
0.12405
0.00215
0.17275
0.12574
-0.17129
-0.14070
-0.17098
-0.14350
-0.07262
0.00259
-0.13181
-0.07399
0.00434
-0.12786
0.00757
0.03862
-0.00342
0.00924
0.03723
-0.00175
-0.01416
-0.01802
-0.09163
-0.01484
-0.01691
-0.09350
-0.01436
-0.10698
-0.17041
-0.00923
-0.11050
-0.17094
-0.00027
0.00474
0.64515
0.41020
0.00247
0.40124
0.65643
-0.00062
0.66205
0.40873
-0.00188
0.41581
0.65376
0.06440
0.68684
0.42112
0.06899
0.42000
0.68262
0.09416
0.76031
0.38432
0.09525
0.38142
0.76364
0.06060
0.93426
0.52213
0.05678
0.50786
0.95110
0.02068
0.55643
0.40951
0.02276
0.42095
0.54764
0.00661
0.27208
0.26405
0.00757
0.25863
0.27220
0.00267
0.08279
0.12225
0.00245
0.12045
0.08394
-0.13219
-0.16517
-0.13129
-0.16517
-0.05001
-0.05508
-0.14467
-0.05179
-0.05408
-0.14467
-0.01181
0.00851
-0.02489
0.00817
-0.01301
-0.02489
-0.05408
-0.13129
-0.17094
-0.01301
-0.05179
-0.09350
-0.00188
0.00817
0.08394
0.01506
0.12045
0.27220
0.04139
0.25863
0.54764
0.08883
0.42095
0.95110
0.11197
0.50786
0.76364
0.09482
0.38142
0.68262
0.00339
0.42000
0.65376
-0.00016
0.41581
0.65643
-0.00016
0.40124
0.41020
0.00339
0.40873
0.64515
0.09482
0.42112
0.66205
0.11197
0.38432
0.68684
0.08883
0.52213
0.76031
0.04139
0.40951
0.93426
0.01506
0.26405
0.55643
-0.00188
0.12225
0.27208
0.00851
0.08279
-0.01181
-0.05508
-0.09163
-0.05001
-0.13219
-0.17041
0.00245
-0.01691
-0.00175
0.00267
-0.01802
-0.00342
-0.11050
-0.01484
-0.12786
-0.10698
-0.01416
-0.13181
-0.00923
-0.14350
-0.01436
-0.14070
0.00757
0.03723
0.12574
0.00661
0.03862
0.12405
0.02276
0.17275
0.30783
0.02068
0.17248
0.30857
0.05678
0.62239
0.31564
0.06060
0.61901
0.32455
0.09525
0.46577
0.86920
0.09416
0.45868
0.87423
0.06899
0.51169
0.74787
0.06440
0.51942
0.75091
-0.00188
0.46910
0.59259
-0.00062
0.47008
0.58311
0.00247
0.57560
0.42875
0.00474
0.58037
0.42569
-0.00027
0.41722
0.41782
0.41531
0.41319
0.00434
-0.17098
-0.12758
0.00259
-0.17129
-0.12469
0.00924
-0.07399
-0.05639
0.00757
-0.07262
-0.05935
0.00215
-0.01312
0.02677
0.00380
-0.01141
0.02370
0.00287
-0.12900
-0.06301
0.00566
-0.12974
-0.06272
-0.04027
-0.07673
-0.04453
-0.07786
0.01160
0.04981
0.14765
0.01022
0.05080
0.15047
0.04020
0.06094
0.35632
0.58292
0.03923
0.06157
0.35205
0.58725
0.20670
0.33856
0.20745
0.34008
0.10555
0.48111
0.91043
0.10552
0.47438
0.89815
0.06559
0.74083
0.49523
0.06758
0.75312
0.49455
0.00085
0.00015
0.43947
0.38930
-0.00022
0.00014
0.42741
0.39020
0.43621
0.50051
0.44077
0.50698
0.38768
0.39479
0.00322
-0.06250
-0.01193
0.00254
-0.06595
-0.01482
-0.03244
-0.18179
-0.05169
-0.03686
-0.17730
-0.05521
0.00863
0.00481
0.06045
0.00619
0.00532
0.06397
-0.01028
-0.12856
-0.03597
-0.00973
-0.12704
-0.03646
0.02088
0.05981
0.19243
0.02149
0.06125
0.18858
0.04345
0.20937
0.34801
0.04442
0.21120
0.34529
-0.00165
0.05021
0.40257
0.45128
-0.00228
0.04686
0.40169
0.45996
0.06720
0.34091
0.61092
0.07106
0.33893
0.60444
-0.00238
0.38665
0.33679
-0.00011
0.39723
0.33126
0.44199
0.86690
0.44436
0.88172
-0.09661
-0.02627
-0.09938
-0.02680
0.00051
0.39277
0.35019
0.38213
0.34219
0.00028
-0.06730
0.00266
0.00033
-0.06794
0.00193
-0.04429
-0.17380
-0.03587
-0.04793
-0.16976
-0.03624
0.00881
0.00099
0.08783
0.00949
0.00013
0.08567
-0.01737
-0.12066
-0.02316
-0.01653
-0.11987
-0.01921
0.02030
0.05492
0.19012
0.01867
0.05813
0.18943
0.04989
0.17682
0.34918
0.05044
0.17875
0.35586
0.05006
-0.00496
0.39563
0.32788
0.04902
-0.00411
0.40370
0.32004
0.06323
0.27923
0.53686
0.06337
0.28289
0.53154
0.79907
0.37345
0.79227
0.36889
-0.00066
0.35508
0.33596
-0.00070
0.36059
0.33838
0.36237
0.36476
-0.10245
-0.03216
-0.10554
-0.02857
-0.00419
-0.06448
0.03826
-0.00198
-0.06803
0.03702
-0.05178
-0.17207
-0.04075
-0.05130
-0.17007
-0.03938
0.00843
-0.00110
0.10924
0.00777
-0.00176
0.10192
-0.02555
-0.13021
-0.00887
-0.02722
-0.12826
-0.01327
0.02275
0.04568
0.22210
0.02182
0.04620
0.22154
0.04323
0.14444
0.33428
0.04144
0.14205
0.32936
0.05975
0.05300
0.27266
0.54398
0.06370
0.05176
0.26736
0.54745
0.21012
0.52598
0.21292
0.53512
-0.00164
0.34387
0.26858
-0.00347
0.34271
0.27075
-0.00349
0.30368
0.30182
0.30721
0.30079
-0.11155
-0.11602
-0.00754
-0.07701
0.02534
-0.00914
-0.07650
0.02730
-0.06017
-0.06157
-0.06350
-0.05173
0.00785
-0.02397
0.10017
0.00927
-0.02109
0.10340
0.01417
0.01452
0.18380
0.01285
0.01631
0.18386
0.04145
0.09803
0.31039
0.03990
0.10006
0.30831
0.02423
0.15024
0.39598
0.02569
0.14868
0.39318
-0.03014
-0.13503
-0.03118
-0.02808
-0.13028
-0.03174
-0.00588
0.29548
0.23089
-0.00415
0.29648
0.23112
-0.00488
0.32521
0.26836
-0.00502
0.33010
0.26954
0.27359
0.27672
-0.01184
-0.08529
0.03349
-0.01421
-0.08722
0.02836
-0.05886
-0.08149
-0.06702
-0.08467
0.01020
-0.03960
0.09185
0.00767
-0.03818
0.09256
0.00829
-0.01026
0.17627
0.00801
-0.00977
0.17508
0.04519
0.04831
0.23971
0.04729
0.05007
0.23833
-0.03409
-0.15223
-0.05168
-0.03551
-0.15102
-0.04967
0.03247
0.07651
0.32697
0.03354
0.07439
0.32455
-0.00434
0.25466
0.20938
-0.00821
0.25217
0.21045
-0.00705
0.26656
0.22085
0.27076
0.21678
-0.01228
-0.11416
-0.01467
-0.01084
-0.11469
-0.01420
0.00296
-0.06860
0.04463
0.00071
-0.07043
0.04477
-0.07608
-0.08248
0.01841
-0.04014
0.09623
0.01668
-0.03902
0.09627
0.01730
-0.01730
0.16544
0.01885
-0.01678
0.16755
-0.03456
-0.09850
-0.03624
-0.09362
-0.00203
0.12190
0.17227
-0.00253
0.12401
0.17027
-0.00724
0.18586
0.17328
-0.00614
0.18178
0.17061
0.18421
0.18788
-0.01805
-0.13956
-0.05313
-0.01765
-0.14102
-0.05059
-0.02046
-0.10220
-0.00884
-0.02203
-0.10336
-0.01208
0.01938
-0.07266
0.06709
0.01719
-0.07105
0.06504
0.01346
-0.04772
0.12243
0.01198
-0.04620
0.12343
-0.00324
0.13690
0.11647
-0.00017
0.14310
0.11756
-0.00519
0.13499
0.13602
0.13495
0.13277
-0.04117
-0.12710
-0.04451
-0.12386
-0.04155
-0.17092
-0.10152
-0.04665
-0.17088
-0.09575
-0.03010
-0.13906
-0.06105
-0.03402
-0.13882
-0.05929
0.00336
-0.01895
-0.11074
0.00564
-0.01655
-0.11249
0.00123
0.01058
0.06992
0.00031
0.01226
0.06560
0.00089
0.08883
0.07997
-0.00048
0.08921
0.07814
0.08412
0.08195
-0.07380
-0.07435
-0.06641
-0.07564
-0.02794
0.00050
-0.03694
-0.14346
-0.03113
-0.00046
-0.03071
-0.14361
-0.11974
-0.11730
0.00381
-0.00048
0.00606
0.00661
0.00129
0.00581
0.00372
0.01316
0.01237
0.01222
0.01319
-0.03779
0.01238
-0.07036
-0.03561
0.00945
-0.07378
0.01021
-0.08016
-0.05851
0.00954
-0.08219
-0.05395
-0.06609
-0.06702
0.00885
0.00734
0.01088
0.00977
0.00913
0.03236
0.03129
0.00923
0.03297
0.03147
0.02881
0.02485
0.02756
0.02330
0.00934
0.00920
0.07903
0.07858
0.01116
0.08475
0.06769
0.01032
0.08474
0.06819
0.00031
-0.00720
0.01265
-0.00115
-0.00512
0.01354
0.09054
0.06092
0.09089
0.06216
0.00727
0.00737
0.11732
0.10267
0.00739
0.11691
0.10284
0.00838
0.12798
0.09017
0.00797
0.12672
0.08990
0.00513
-0.04373
-0.03362
0.07085
0.00733
-0.04286
-0.03279
0.07066
0.13061
0.13166
0.12843
0.13064
-0.04829
-0.07048
0.00465
-0.04991
-0.06899
0.00854
-0.10527
-0.03591
-0.10484
-0.03241
0.00389
0.00286
0.13148
0.13246
0.00337
0.14912
0.12334
0.00337
0.14780
0.12517
0.01895
0.15759
0.10938
0.02104
0.15639
0.10993
-0.01139
0.12133
0.20520
-0.01042
0.12050
0.20399
-0.02965
0.01534
0.12964
-0.02827
0.01591
0.13137
-0.02695
-0.02241
0.05875
-0.02740
-0.02218
0.06021
-0.06148
0.00903
-0.06182
0.00936
0.00028
-0.00087
0.15722
0.15112
-0.00077
0.15638
0.15266
0.00360
0.17085
0.13187
0.00378
0.16974
0.13179
0.01765
0.17449
0.28226
0.01763
0.17320
0.28332
-0.00481
0.05075
0.27852
-0.00333
0.05017
0.28019
-0.00580
0.06141
0.18431
-0.00486
0.06128
0.18646
-0.02958
0.02816
0.11652
-0.02831
0.02793
0.11747
-0.00319
-0.00261
0.19491
0.19680
-0.00251
0.22739
0.17299
-0.00243
0.22580
0.17363
0.03412
0.23896
0.14809
0.03412
0.23717
0.14939
-0.06214
-0.02156
0.04625
-0.06279
-0.02104
0.04509
0.03386
0.25934
0.42153
0.03470
0.25678
0.42253
0.01606
0.13993
0.31858
0.01595
0.13933
0.31968
-0.07191
0.00147
-0.07128
0.00037
-0.00315
0.07391
0.22409
-0.00118
0.07271
0.22538
-0.02231
0.04146
0.13383
-0.02209
0.04167
0.13299
-0.00463
-0.00419
0.22983
0.20781
-0.00468
0.22782
0.20760
-0.00147
0.25869
0.18358
-0.00165
0.25659
0.18424
0.02930
0.26667
0.46506
0.02894
0.26524
0.46717
-0.04723
0.00372
0.06538
-0.04978
0.00512
0.06871
0.02613
0.21944
0.49897
0.02629
0.21715
0.50101
0.01835
0.18644
0.35532
0.01908
0.18452
0.35707
0.00225
0.10700
0.23177
0.00259
0.10490
0.23366
-0.04991
0.00744
-0.04839
0.01167
-0.02009
0.07197
0.13357
-0.01894
0.07214
0.13703
-0.00379
-0.00414
0.25260
0.25344
-0.00588
0.27563
0.22773
-0.00509
0.27407
0.22933
0.05571
0.29181
0.19849
0.05531
0.28899
0.20024
-0.04925
0.02691
0.05847
-0.04739
0.02666
0.05824
0.04972
0.73775
0.35095
0.04912
0.74099
0.35019
0.03290
0.29155
0.52945
0.03387
0.29011
0.52928
0.02202
0.24232
0.35107
0.02297
0.24021
0.35164
0.00345
0.13290
0.21466
0.00392
0.13114
0.21452
-0.09689
-0.04126
0.00933
-0.09557
-0.03925
0.01131
-0.01175
0.09274
0.10862
-0.01216
0.09169
0.10870
-0.09626
0.00187
-0.09433
0.00233
-0.00224
-0.00437
0.29991
0.28404
-0.00423
0.29946
0.28558
-0.00343
0.32144
0.25867
-0.00349
0.32029
0.25915
0.04460
0.06104
0.38889
0.81072
0.04382
0.06098
0.38691
0.80864
0.67334
0.33496
0.67323
0.33249
0.03924
0.34483
0.53650
0.03949
0.34327
0.53851
0.02282
0.28339
0.33723
0.02279
0.28221
0.33942
-0.04030
0.04079
0.04095
-0.03820
0.04134
0.04238
0.00730
0.15517
0.18085
0.00743
0.15439
0.18293
-0.08368
-0.02742
0.00808
-0.08359
-0.02631
0.00759
-0.00528
0.10699
0.07607
-0.00511
0.10705
0.07799
-0.09344
-0.00064
-0.09283
-0.00272
-0.00234
-0.00193
0.31628
0.31680
-0.00185
0.34619
0.29190
-0.00209
0.34387
0.29284
0.09512
0.06962
1.17419
0.40711
0.09473
0.06974
1.18114
0.40406
0.06621
0.45799
0.82641
0.06650
0.45630
0.82706
0.36617
0.36296
0.36355
0.36350
0.04313
0.41886
0.51399
0.04286
0.41558
0.51422
0.02197
0.32897
0.29356
0.02214
0.32823
0.29392
-0.03109
0.04831
0.01656
-0.03038
0.04802
0.01713
0.00786
0.15045
0.13239
0.00902
0.14982
0.13349
-0.07985
-0.02599
-0.00020
-0.08078
-0.02574
-0.00031
0.00389
0.09920
0.03404
0.00306
0.09959
0.03360
-0.00031
-0.00004
0.36902
0.34587
-0.00031
0.36870
0.34791
-0.09426
-0.00665
-0.09379
-0.00653
0.10280
0.07486
0.43157
1.08725
0.10301
0.07369
0.42815
1.08461
0.00042
0.44334
0.38805
0.00076
0.44442
0.38590
0.06679
0.49616
0.81677
0.06628
0.49343
0.81633
0.40519
0.80048
0.40335
0.80680
0.04029
0.48009
0.43500
0.04013
0.48186
0.43081
0.01523
0.32223
0.24746
0.01615
0.31978
0.24903
-0.02090
0.03544
-0.00957
-0.02159
0.03571
-0.00866
0.01172
0.13990
0.09141
0.01154
0.13784
0.09225
-0.04994
-0.04123
-0.04100
-0.05060
-0.04134
-0.03934
0.01589
0.08281
0.00062
0.01525
0.08298
0.00219
0.00157
0.00096
0.37702
0.37919
0.00235
0.11131
0.40212
0.54872
0.00216
0.11187
0.40127
0.54558
0.39448
0.56265
0.39385
0.56348
0.14630
0.46991
0.68858
0.14601
0.46842
0.68795
0.10407
0.47787
0.97913
0.10403
0.47589
0.98512
0.05889
0.03032
0.41386
0.43720
0.05854
0.03070
0.41268
0.43722
0.52201
0.79733
0.51842
0.80023
0.01132
0.28381
0.20477
0.01186
0.28256
0.20499
-0.09184
-0.01461
-0.09177
-0.01312
0.01302
0.01700
-0.06065
0.01368
0.01697
-0.06000
0.01893
0.10274
0.06027
0.01788
0.10210
0.06107
0.01965
0.04709
-0.02039
0.01873
0.04699
-0.01948
-0.02096
-0.04350
-0.10313
-0.02108
-0.04410
-0.10150
0.00239
0.00174
0.63571
0.38770
0.00169
0.38713
0.63432
0.00234
0.64323
0.39189
0.00275
0.39154
0.64046
0.10774
0.67966
0.38958
0.10667
0.38824
0.67971
0.15119
0.68909
0.50067
0.15126
0.49938
0.69084
0.09372
1.04489
0.53354
0.09413
0.53416
1.04444
0.04644
0.74073
0.49899
0.04643
0.49677
0.74359
0.01630
0.40109
0.34265
0.01619
0.34136
0.40293
0.01441
0.18151
0.20968
0.01461
0.20827
0.18267
-0.06245
-0.01213
-0.06325
-0.01213
-0.00417
0.00594
-0.08075
0.00639
-0.00294
-0.08075
0.02185
0.05802
0.06833
0.05763
0.02161
0.06833
-0.00294
-0.06325
-0.10150
0.02161
0.00639
-0.01948
0.00918
0.05763
0.18267
0.03041
0.20827
0.40293
0.07890
0.34136
0.74359
0.13843
0.49677
1.04444
0.09936
0.53416
0.69084
0.00102
0.49938
0.67971
0.00140
0.38824
0.64046
0.00154
0.39154
0.63432
0.00154
0.38713
0.38770
0.00140
0.39189
0.63571
0.00102
0.38958
0.64323
0.09936
0.50067
0.67966
0.13843
0.53354
0.68909
0.07890
0.49899
1.04489
0.03041
0.34265
0.74073
0.00918
0.20968
0.40109
0.05802
0.18151
0.02185
0.00594
-0.02039
-0.00417
-0.06245
-0.10313
0.01461
0.04699
0.06107
0.01441
0.04709
0.06027
-0.04410
0.01873
-0.06000
-0.04350
0.01965
-0.06065
-0.02108
-0.01312
-0.02096
-0.01461
0.01619
0.10210
0.20499
0.01630
0.10274
0.20477
0.04643
0.28256
0.43722
0.04644
0.28381
0.43720
0.09413
0.80023
0.41268
0.09372
0.79733
0.41386
0.15126
0.51842
0.98512
0.15119
0.52201
0.97913
0.10667
0.47589
0.68795
0.10774
0.47787
0.68858
0.00275
0.46842
0.54558
0.00234
0.46991
0.54872
0.00169
0.56348
0.40127
0.00174
0.56265
0.40212
0.00239
0.39385
0.37919
0.39448
0.37702
0.01697
-0.09177
-0.03934
0.01700
-0.09184
-0.04100
0.01788
0.01368
0.00219
0.01893
0.01302
0.00062
0.01186
0.08298
0.09225
0.01132
0.08281
0.09141
0.01525
-0.04134
-0.00866
0.01589
-0.04123
-0.00957
-0.05060
-0.00653
-0.04994
-0.00665
0.03070
0.13784
0.24903
0.03032
0.13990
0.24746
0.05854
0.10403
0.43081
0.81633
0.05889
0.10407
0.43500
0.81677
0.31978
0.48186
0.32223
0.48009
0.14601
0.49343
1.08461
0.14630
0.49616
1.08725
0.11187
0.80680
0.42815
0.11131
0.80048
0.43157
0.00216
0.00096
0.38590
0.34791
0.00235
0.00157
0.38805
0.34587
0.40335
0.44442
0.40519
0.44334
0.36870
0.36902
0.01154
0.03571
0.03360
0.01172
0.03544
0.03404
-0.02159
-0.09379
-0.00031
-0.02090
-0.09426
-0.00020
0.01615
0.09959
0.13349
0.01523
0.09920
0.13239
0.00306
-0.02574
0.01713
0.00389
-0.02599
0.01656
0.04013
0.14982
0.29392
0.04029
0.15045
0.29356
0.06628
0.32823
0.51422
0.06679
0.32897
0.51399
0.00076
0.07369
0.36350
0.40406
0.00042
0.07486
0.36296
0.40711
0.10301
0.41558
0.82706
0.10280
0.41886
0.82641
-0.00031
0.36355
0.29284
-0.00004
0.36617
0.29190
0.45630
1.18114
0.45799
1.17419
-0.08078
-0.00272
-0.07985
-0.00064
-0.00031
0.34387
0.31680
0.34619
0.31628
0.00902
0.04802
0.07799
0.00786
0.04831
0.07607
-0.03038
-0.09283
0.00759
-0.03109
-0.09344
0.00808
0.02214
0.10705
0.18293
0.02197
0.10699
0.18085
-0.00511
-0.02631
0.04238
-0.00528
-0.02742
0.04095
0.04286
0.15439
0.33942
0.04313
0.15517
0.33723
0.06650
0.28221
0.53851
0.06621
0.28339
0.53650
0.06974
-0.00209
0.33249
0.25915
0.06962
-0.00185
0.33496
0.25867
0.09473
0.34327
0.80864
0.09512
0.34483
0.81072
0.67323
0.38691
0.67334
0.38889
-0.00193
0.32029
0.28558
-0.00234
0.32144
0.28404
0.29946
0.29991
-0.08359
0.00233
-0.08368
0.00187
0.00743
0.04134
0.10870
0.00730
0.04079
0.10862
-0.03820
-0.09433
0.01131
-0.04030
-0.09626
0.00933
0.02279
0.09169
0.21452
0.02282
0.09274
0.21466
-0.01216
-0.03925
0.05824
-0.01175
-0.04126
0.05847
0.03949
0.13114
0.35164
0.03924
0.13290
0.35107
0.06098
0.24021
0.52928
0.06104
0.24232
0.52945
0.04382
-0.00349
0.35019
0.20024
0.04460
-0.00343
0.35095
0.19849
0.29011
0.74099
0.29155
0.73775
-0.00423
0.28899
0.22933
-0.00437
0.29181
0.22773
-0.00224
0.27407
0.25344
0.27563
0.25260
-0.09557
-0.09689
0.00392
0.02666
0.13703
0.00345
0.02691
0.13357
-0.04739
0.01167
-0.04925
0.00744
0.02297
0.07214
0.23366
0.02202
0.07197
0.23177
0.03387
0.10490
0.35707
0.03290
0.10700
0.35532
0.04912
0.18452
0.50101
0.04972
0.18644
0.49897
0.05531
0.21715
0.46717
0.05571
0.21944
0.46506
-0.01894
-0.04839
0.06871
-0.02009
-0.04991
0.06538
-0.00509
0.26524
0.18424
-0.00588
0.26667
0.18358
-0.00414
0.25659
0.20760
-0.00379
0.25869
0.20781
0.22782
0.22983
0.00259
0.00512
0.13299
0.00225
0.00372
0.13383
-0.04978
0.00037
-0.04723
0.00147