# vtk DataFile Version 3.0
Point representing Sub_cellular elem model
ASCII

DATASET UNSTRUCTURED_GRID
POINTS 3657 float
-54.80835 -3.05805 53.36273 
-54.79394 3.20121 53.37632 
-54.46900 -9.27096 52.94721 
-54.45775 9.43854 52.98029 
-51.66719 0.04586 56.86867 
-51.42340 -6.12686 56.59736 
-51.42898 6.22884 56.58709 
-51.65020 -17.15718 53.65853 
-51.56566 17.25483 53.67598 
-51.09620 -12.20731 56.05600 
-51.02125 12.33559 56.10817 
-47.97632 -3.07199 59.80255 
-47.98598 3.14426 59.79779 
-47.69715 -9.24529 59.45557 
-47.68063 9.29139 59.46563 
-47.94869 -20.21932 56.46044 
-47.88842 20.31474 56.45739 
-47.41166 -15.17141 58.48058 
-47.35559 15.23586 58.51378 
-48.30778 -25.01308 53.69329 
-48.26204 25.19551 53.79144 
-48.29575 -29.87806 50.87461 
-48.20318 30.06008 50.93350 
-44.40346 0.01096 62.59547 
-44.31286 -6.19984 62.50993 
-44.30256 6.22970 62.51734 
-43.94614 -12.17023 61.80627 
-43.92426 12.21624 61.84340 
-43.68681 -18.12009 60.82197 
-43.65100 18.15975 60.84859 
-44.07874 -23.18566 58.58500 
-44.03477 23.26545 58.62394 
-44.47198 -28.18944 56.21008 
-44.39996 28.31378 56.25152 
-43.64728 -33.73331 53.65452 
-43.50660 33.86599 53.64589 
-40.69631 -3.08749 64.99566 
-40.67940 3.12585 65.00645 
-40.43363 -9.10226 64.65654 
-40.41448 9.11191 64.64718 
-40.02644 -14.98375 63.93617 
-40.01055 15.01526 63.94780 
-39.71456 -20.82874 62.67207 
-39.69255 20.88979 62.68482 
-40.14026 -25.93436 60.59506 
-40.07662 26.01378 60.62894 
-39.49705 -31.52816 58.40355 
-39.42522 31.60250 58.45032 
-37.07790 0.01415 67.35567 
-36.89059 -5.97447 67.08679 
-36.85247 5.99337 67.10425 
-36.47356 -11.94167 66.76032 
-36.47019 11.96842 66.76358 
-38.57850 -37.00336 55.83313 
-38.49508 37.10713 55.94300 
-36.07828 -17.77330 65.74639 
-36.08469 17.79120 65.75307 
-35.77422 -23.51211 64.42552 
-35.74159 23.53726 64.45440 
-37.60622 -41.95112 52.37106 
-37.52265 42.12552 52.49389 
-35.18904 -29.09276 62.46659 
-35.11704 29.13172 62.52216 
-34.44343 -34.67866 60.27484 
-34.36525 34.71433 60.33590 
-32.49762 -3.15734 69.54511 
-32.47721 3.15009 69.55544 
-32.13770 -9.14795 69.21732 
-32.14146 9.17583 69.24433 
-31.58499 -15.04456 68.61665 
-31.57368 15.05023 68.62881 
-33.36724 -39.96899 57.31952 
-33.29433 40.03017 57.36657 
-31.23261 -20.86600 67.48202 
-31.22192 20.84938 67.50058 
-31.57932 -26.01070 65.64601 
-31.53539 26.00704 65.68874 
-30.87688 -31.60021 63.63305 
-30.82104 31.62445 63.67072 
-32.28203 -45.03405 54.08647 
-32.09777 45.14166 54.18742 
-29.99601 -37.09288 61.15592 
-29.90928 37.13308 61.17712 
-27.84941 0.00068 71.61488 
-27.78637 -6.31310 71.55306 
-27.77318 6.31690 71.55971 
-27.15051 -12.33617 70.98261 
-27.11468 12.32243 70.97615 
-28.84826 -42.37108 58.21101 
-28.76655 42.40844 58.25863 
-26.76712 -18.18239 70.18817 
-26.74554 18.16478 70.20964 
-27.03077 -23.33347 68.57198 
-27.00633 23.33482 68.59584 
-27.34840 -28.47922 66.75910 
-27.31629 28.50132 66.78113 
-26.47564 -33.99327 64.47906 
-26.44513 34.02418 64.52345 
-27.47887 -47.49101 54.65625 
-27.34573 47.54562 54.65974 
-25.50951 -39.47413 61.94789 
-25.43936 39.51265 61.97729 
-26.16206 -51.84489 50.36816 
-25.99418 51.96950 50.41643 
-23.08150 -3.16818 73.33436 
-23.05265 3.17083 73.31539 
-22.82896 -9.41181 72.92779 
-22.82342 9.43260 72.92919 
-22.50575 -20.54335 71.03449 
-22.50534 20.55029 71.06240 
-22.26088 -15.32177 72.24099 
-22.22382 15.34327 72.25749 
-22.77109 -25.73321 69.40870 
-22.72923 25.74315 69.41074 
-22.95721 -30.77701 67.36457 
-22.92868 30.80885 67.37654 
-24.10832 -44.76327 58.67118 
-24.02400 44.81887 58.68638 
-22.02486 -36.26226 65.01232 
-21.96055 36.29730 65.03206 
-22.68550 -49.87105 54.90198 
-22.56932 49.92809 54.93425 
-20.69858 -41.70530 62.15722 
-20.62324 41.72228 62.19460 
-21.02976 -54.24102 50.59395 
-20.84891 54.31700 50.64748 
-18.30941 -0.00229 74.92504 
-18.17081 -6.26180 74.59743 
-18.18275 6.25814 74.59371 
-18.07163 -17.72610 73.02747 
-18.03230 17.73022 73.04298 
-18.28341 -22.93716 71.76685 
-18.26831 22.94154 71.77841 
-17.92506 -12.46998 74.08800 
-17.89813 12.46173 74.09798 
-18.40578 -28.01258 69.91283 
-18.39807 28.02013 69.92484 
-18.56800 -33.02912 67.83411 
-18.53745 33.05672 67.84447 
-19.22354 -46.95034 58.77819 
-19.16280 46.96922 58.80411 
-17.27574 -38.47617 65.20979 
-17.19408 38.49046 65.23891 
-17.66800 -51.82803 54.85647 
-17.55537 51.87774 54.87762 
-15.85225 -43.86872 62.31000 
-15.78472 43.89365 62.32574 
-13.64814 -3.18056 75.79757 
-13.62918 3.17600 75.82607 
-15.87041 -56.20769 50.51392 
-15.68494 56.29385 50.58533 
-13.67377 -20.01162 73.55304 
-13.66793 20.01974 73.55743 
-13.46794 -9.45933 75.38270 
-13.46915 9.43243 75.38211 
-13.75215 -25.19199 72.01255 
-13.72678 25.17778 72.02799 
-13.45018 -14.76867 74.66802 
-13.42683 14.75111 74.67790 
-13.79774 -30.26545 70.09649 
-13.78525 30.24822 70.11767 
-14.05994 -35.06933 67.79525 
-14.00951 35.06025 67.82384 
-14.25961 -48.88706 58.71150 
-14.20672 48.91264 58.72305 
-12.61867 -40.46755 65.08926 
-12.58264 40.47889 65.07387 
-12.66419 -53.71478 54.74367 
-12.52507 53.75613 54.75690 
-11.08353 -45.70658 61.86626 
-10.99129 45.74011 61.90417 
-9.05639 0.00169 76.63035 
-9.00293 -11.72230 75.86344 
-8.99760 11.72507 75.84782 
-8.99735 -6.36513 76.51980 
-8.97023 6.36544 76.52438 
-9.08799 -16.95551 75.08058 
-9.07673 16.95893 75.08462 
-9.18497 -22.16318 73.69351 
-9.14317 22.17250 73.70183 
-9.28495 -32.19203 69.97536 
-9.24791 32.22400 69.99565 
-9.15563 -27.34676 72.10830 
-9.13349 27.34998 72.11527 
-9.46129 -37.02897 67.68802 
-9.43388 37.07031 67.67901 
-9.83609 -57.26438 51.29430 
-9.63701 57.27055 51.26918 
-9.42114 -50.68605 58.22789 
-9.35744 50.68978 58.25179 
-7.90374 -42.30241 64.66097 
-7.84279 42.32872 64.66181 
-6.26389 -47.48402 61.45178 
-6.15489 47.51770 61.44571 
-6.43895 -54.24407 55.31526 
-6.32326 54.24529 55.33620 
-4.47319 -3.18869 77.07445 
-4.44965 3.20673 77.07897 
-4.50089 -8.57902 76.68025 
-4.48461 8.57905 76.68114 
-4.51705 -13.93183 75.98735 
-4.50868 13.92303 76.00777 
-4.59326 -19.06407 74.98843 
-4.58482 19.07837 74.98655 
-4.58131 -24.21192 73.54375 
-4.53813 24.23413 73.54131 
-4.58388 -29.13637 71.76383 
-4.57418 29.11804 71.75457 
-4.66858 -33.98745 69.59225 
-4.65003 34.00053 69.59173 
-4.78318 -38.75099 67.10808 
-4.74525 38.77473 67.10198 
-3.39364 -57.64132 51.89424 
-3.22668 57.65292 51.88266 
-3.21968 -51.03786 58.69727 
-3.12497 51.04748 58.66258 
-3.09848 -43.95695 64.03998 
-3.02067 43.97158 64.03746 
-0.05729 -54.49004 55.72789 
-0.04581 -47.59796 61.53312 
-0.02542 -40.36208 66.45253 
-0.00700 -35.61334 68.96135 
0.00691 -30.82441 71.29578 
-0.02725 -25.89158 73.11352 
-0.00142 -21.00382 74.72620 
0.00338 -15.92906 75.80794 
-0.00006 -10.74718 76.69251 
-0.02093 -5.36354 77.11927 
0.00000 -0.00000 77.38832 
0.02093 5.36354 77.11927 
0.00006 10.74718 76.69251 
-0.00338 15.92906 75.80794 
0.00142 21.00382 74.72620 
0.02725 25.89158 73.11352 
-0.00691 30.82441 71.29578 
0.00700 35.61334 68.96135 
0.02542 40.36208 66.45253 
0.04581 47.59796 61.53312 
0.05729 54.49004 55.72789 
3.02067 -43.97158 64.03746 
3.09848 43.95695 64.03998 
3.12497 -51.04748 58.66258 
3.21968 51.03786 58.69727 
3.22668 -57.65292 51.88266 
3.39364 57.64132 51.89424 
4.74525 -38.77473 67.10198 
4.78318 38.75099 67.10808 
4.65003 -34.00053 69.59173 
4.66858 33.98745 69.59225 
4.57418 -29.11804 71.75457 
4.58388 29.13637 71.76383 
4.53813 -24.23413 73.54131 
4.58131 24.21192 73.54375 
4.58482 -19.07837 74.98655 
4.59326 19.06407 74.98843 
4.50868 -13.92303 76.00777 
4.51705 13.93183 75.98735 
4.48461 -8.57905 76.68114 
4.50089 8.57902 76.68025 
4.44965 -3.20673 77.07897 
4.47319 3.18869 77.07445 
6.32326 -54.24529 55.33620 
6.43895 54.24407 55.31526 
6.15489 -47.51770 61.44571 
6.26389 47.48402 61.45178 
7.84279 -42.32872 64.66181 
7.90374 42.30241 64.66097 
9.35744 -50.68978 58.25179 
9.42114 50.68605 58.22789 
9.63701 -57.27055 51.26918 
9.83609 57.26438 51.29430 
9.43388 -37.07031 67.67901 
9.46129 37.02897 67.68802 
9.13349 -27.34998 72.11527 
9.15563 27.34676 72.10830 
9.24791 -32.22400 69.99565 
9.28495 32.19203 69.97536 
9.14317 -22.17250 73.70183 
9.18497 22.16318 73.69351 
9.07673 -16.95893 75.08462 
9.08799 16.95551 75.08058 
8.97023 -6.36544 76.52438 
8.99735 6.36513 76.51980 
8.99760 -11.72507 75.84782 
9.00293 11.72230 75.86344 
9.05639 -0.00169 76.63035 
10.99129 -45.74011 61.90417 
11.08353 45.70658 61.86626 
12.52507 -53.75613 54.75690 
12.66419 53.71478 54.74367 
12.58264 -40.47889 65.07387 
12.61867 40.46755 65.08926 
14.20672 -48.91264 58.72305 
14.25961 48.88706 58.71150 
14.00951 -35.06025 67.82384 
14.05994 35.06933 67.79525 
13.78525 -30.24822 70.11767 
13.79774 30.26545 70.09649 
13.42683 -14.75111 74.67790 
13.45018 14.76867 74.66802 
13.72678 -25.17778 72.02799 
13.75215 25.19199 72.01255 
13.46915 -9.43243 75.38211 
13.46794 9.45933 75.38270 
13.66793 -20.01974 73.55743 
13.67377 20.01162 73.55304 
15.68494 -56.29385 50.58533 
15.87041 56.20769 50.51392 
13.62918 -3.17600 75.82607 
13.64814 3.18056 75.79757 
15.78472 -43.89365 62.32574 
15.85225 43.86872 62.31000 
17.55537 -51.87774 54.87762 
17.66800 51.82803 54.85647 
17.19408 -38.49046 65.23891 
17.27574 38.47617 65.20979 
19.16280 -46.96922 58.80411 
19.22354 46.95034 58.77819 
18.53745 -33.05672 67.84447 
18.56800 33.02912 67.83411 
18.39807 -28.02013 69.92484 
18.40578 28.01258 69.91283 
17.89813 -12.46173 74.09798 
17.92506 12.46998 74.08800 
18.26831 -22.94154 71.77841 
18.28341 22.93716 71.76685 
18.03230 -17.73022 73.04298 
18.07163 17.72610 73.02747 
18.18275 -6.25814 74.59371 
18.17081 6.26180 74.59743 
18.30941 0.00229 74.92504 
20.84891 -54.31700 50.64748 
21.02976 54.24102 50.59395 
20.62324 -41.72228 62.19460 
20.69858 41.70530 62.15722 
22.56932 -49.92809 54.93425 
22.68550 49.87105 54.90198 
21.96055 -36.29730 65.03206 
22.02486 36.26226 65.01232 
24.02400 -44.81887 58.68638 
24.10832 44.76327 58.67118 
22.92868 -30.80885 67.37654 
22.95721 30.77701 67.36457 
22.72923 -25.74315 69.41074 
[...]
CELL_DATA 40900
SCALARS Strain double 1
LOOKUP_TABLE default
-0.00844
-0.00664
-0.02353
-0.02165
-0.00299
-0.02144
-0.03011
-0.02659
-0.04953
-0.02659
-0.04436
-0.01264
-0.01097
0.01706
0.01355
-0.02429
0.01514
0.00615
-0.02017
0.01819
0.00514
-0.02548
-0.08222
-0.04770
-0.02780
-0.08679
-0.04724
0.01299
-0.05428
0.01005
-0.06446
-0.01610
-0.01326
0.04790
0.05013
-0.01735
0.05500
0.04926
-0.02141
0.05998
0.03636
-0.01874
0.06070
0.03944
-0.04049
-0.04625
-0.05282
-0.07759
-0.03317
-0.04157
-0.04954
-0.07821
0.02614
-0.03852
0.02456
-0.04414
-0.03890
-0.04561
-0.06688
-0.03553
-0.04778
-0.07358
-0.06600
-0.08118
-0.06747
-0.08430
-0.01490
-0.01363
0.08151
0.08670
-0.01778
0.09112
0.08177
-0.01560
0.09134
0.07946
-0.00937
0.09896
0.05398
-0.01001
0.09790
0.04949
-0.02246
-0.02470
-0.01389
-0.01698
-0.02748
-0.01471
-0.03696
-0.01884
-0.04279
-0.03050
-0.02260
-0.04044
-0.02835
-0.02908
-0.04775
-0.02236
-0.02833
-0.05138
-0.05823
-0.07837
-0.05588
-0.08101
-0.01651
-0.01225
0.10712
0.10426
-0.01673
0.10495
0.10584
-0.01612
0.11488
0.10741
-0.01299
0.11899
0.10792
0.00808
0.07546
0.06324
0.01295
0.07353
0.05786
-0.02136
-0.01140
0.01552
-0.02029
-0.01106
0.01452
-0.01708
-0.00588
-0.00772
-0.01846
-0.00642
-0.00889
-0.03105
-0.02172
-0.03099
-0.03074
-0.01878
-0.03254
-0.01632
-0.01777
0.13433
0.13446
-0.01646
0.15222
0.13390
-0.01542
0.15149
0.12934
-0.00433
0.15566
0.17365
-0.00600
0.15653
0.17334
-0.04014
-0.05229
-0.07133
-0.03229
-0.05401
-0.07796
0.00082
0.03363
0.09042
0.00154
0.03734
0.09034
-0.00857
0.02749
0.03981
-0.00719
0.02695
0.03952
-0.05563
-0.06936
-0.05944
-0.06253
-0.00873
0.00348
0.00920
-0.00943
0.00319
0.00430
-0.00843
-0.01339
-0.03738
-0.00396
-0.01701
-0.03685
-0.01670
-0.01638
0.16521
0.15471
-0.01102
0.16055
0.15451
-0.00061
0.17276
0.15183
-0.00381
0.17620
0.15207
0.02875
0.14533
0.20098
0.02475
0.14946
0.20069
-0.03548
-0.03297
-0.06465
-0.03057
-0.03273
-0.06523
-0.00232
0.07218
0.12069
-0.00193
0.07402
0.12554
-0.00095
0.05560
0.06045
0.00393
0.05104
0.06008
-0.00769
0.01939
0.00390
-0.00351
0.01538
0.00041
-0.05662
-0.06850
-0.06655
-0.08202
-0.00766
-0.00303
-0.03054
-0.01024
-0.00575
-0.03318
-0.01306
-0.01267
0.16718
0.17076
-0.01164
0.18068
0.16814
-0.01387
0.18176
0.16838
-0.00255
0.18124
0.29375
-0.00397
0.17300
0.29904
-0.02480
-0.02875
-0.05703
-0.01721
-0.03193
-0.05565
0.00984
0.23710
0.14412
0.01306
0.23577
0.14232
0.00197
0.11017
0.13057
0.00558
0.10648
0.13410
0.00291
0.07297
0.06471
0.00282
0.07373
0.06474
-0.00115
0.03073
0.00118
0.00202
0.02731
0.00701
-0.04343
-0.06255
-0.07086
-0.03945
-0.06575
-0.07306
-0.00062
0.00275
-0.03762
0.00324
0.00153
-0.03834
-0.07436
-0.03241
-0.07728
-0.03384
-0.01183
-0.01351
0.19805
0.19283
-0.01100
0.19519
0.18606
0.02040
0.19632
0.16774
0.02075
0.19588
0.16864
0.03086
0.01755
0.18139
0.26982
0.02800
0.01919
0.18724
0.27215
0.42994
0.19292
0.42798
0.19407
0.00570
0.14183
0.15411
0.00885
0.13904
0.14708
0.00090
0.08858
0.05564
0.00182
0.08774
0.05558
-0.00208
-0.03668
-0.06622
-0.00234
-0.03187
-0.07254
0.00674
0.03500
-0.01029
0.00334
0.03095
-0.00890
-0.03389
-0.05651
-0.06340
-0.03148
-0.05924
-0.06442
0.00570
0.00176
-0.05196
0.00637
0.00193
-0.05275
-0.08183
-0.03521
-0.08969
-0.03386
-0.01020
-0.01007
0.20214
0.20633
-0.01532
0.21072
0.18817
-0.01596
0.21773
0.18741
0.03378
0.01371
0.48923
0.22441
0.03421
0.01573
0.48061
0.22371
0.01941
0.22006
0.29626
0.01997
0.21760
0.29655
0.21581
0.21510
0.21254
0.21333
0.00394
0.16747
0.14666
0.00736
0.17264
0.14528
0.00374
0.10127
0.04287
0.00232
0.10323
0.04351
-0.00279
-0.02924
-0.07509
0.00322
-0.03016
-0.07590
0.00733
0.03001
-0.02096
0.00927
0.02924
-0.02904
-0.02852
-0.06526
-0.07533
-0.02671
-0.06973
-0.07152
0.01385
0.00041
-0.07243
0.01373
-0.00435
-0.06806
-0.00787
-0.00842
0.22189
0.21897
-0.01170
0.21669
0.22035
-0.09387
-0.05340
-0.10126
-0.05513
0.02740
0.01057
0.24673
0.46605
0.02269
0.01565
0.24820
0.47578
-0.01225
0.26715
0.23115
-0.01078
0.27163
0.23310
0.01585
0.23973
0.30149
0.01497
0.23943
0.30261
0.23277
0.36860
0.22580
0.36809
0.00483
0.13667
0.17958
0.00528
0.14640
0.17809
0.00118
0.10176
0.03514
0.00662
0.09562
0.03511
0.00537
-0.04136
-0.09441
0.01045
-0.03553
-0.09416
0.00825
0.02504
-0.05027
0.00910
0.02097
-0.04518
-0.00625
-0.07436
-0.09927
-0.00076
-0.07697
-0.10298
0.02049
-0.01317
-0.09405
0.01689
-0.01911
-0.09063
-0.00378
-0.00423
0.23629
0.24247
-0.00379
0.04101
0.23522
0.30257
-0.00286
0.04056
0.23808
0.30222
0.23966
0.32136
0.23675
0.31873
0.04787
0.24258
0.36125
0.04867
0.24414
0.36185
0.02632
0.24994
0.47082
0.02527
0.24292
0.47282
0.01253
0.00463
0.16319
0.12117
0.01648
0.00864
0.16233
0.11613
0.24621
0.30320
0.24711
0.29838
0.00395
0.07659
0.01660
0.00252
0.07839
0.01730
-0.09360
-0.08127
-0.09554
-0.08557
-0.03829
0.00581
-0.11443
-0.03978
0.01102
-0.11058
0.00741
0.01343
-0.05855
0.01095
0.01059
-0.05626
-0.01312
-0.01728
-0.09217
-0.01477
-0.01801
-0.09477
0.00123
-0.05431
-0.12401
0.01057
-0.06263
-0.12435
-0.00175
0.00377
0.34426
0.23224
0.00049
0.23026
0.34658
-0.00630
0.35614
0.23885
-0.00836
0.24348
0.35219
0.03105
0.31765
0.23803
0.03636
0.23486
0.31512
0.03027
0.37293
0.18420
0.03180
0.18333
0.36996
0.02387
0.47342
0.27054
0.01689
0.26628
0.47426
0.00544
0.26729
0.22299
0.01018
0.22882
0.26303
0.00869
0.10596
0.12733
0.01088
0.12381
0.10406
0.00096
0.00194
0.04420
0.00120
0.04339
0.00270
-0.06744
-0.09817
-0.06985
-0.09817
-0.02684
-0.03879
-0.11936
-0.03488
-0.02914
-0.11936
-0.01644
-0.00355
-0.05426
-0.00439
-0.01702
-0.05426
-0.02914
-0.06985
-0.12435
-0.01702
-0.03488
-0.09477
0.00658
-0.00439
0.00270
0.01107
0.04339
0.10406
0.02099
0.12381
0.26303
0.02805
0.22882
0.47426
0.06591
0.26628
0.36996
0.05249
0.18333
0.31512
0.00517
0.23486
0.35219
-0.00045
0.24348
0.34658
-0.00045
0.23026
0.23224
0.00517
0.23885
0.34426
0.05249
0.23803
0.35614
0.06591
0.18420
0.31765
0.02805
0.27054
0.37293
0.02099
0.22299
0.47342
0.01107
0.12733
0.26729
0.00658
0.04420
0.10596
-0.00355
0.00194
-0.01644
-0.03879
-0.09217
-0.02684
-0.06744
-0.12401
0.00120
-0.01801
-0.05626
0.00096
-0.01728
-0.05855
-0.06263
-0.01477
-0.11058
-0.05431
-0.01312
-0.11443
0.01057
-0.08557
0.00123
-0.08127
0.01088
0.01059
0.01730
0.00869
0.01343
0.01660
0.01018
0.07839
0.11613
0.00544
0.07659
0.12117
0.01689
0.29838
0.16233
0.02387
0.30320
0.16319
0.03180
0.24711
0.47282
0.03027
0.24621
0.47082
0.03636
0.24292
0.36185
0.03105
0.24994
0.36125
-0.00836
0.24414
0.30222
-0.00630
0.24258
0.30257
0.00049
0.31873
0.23808
0.00377
0.32136
0.23522
-0.00175
0.23675
0.24247
0.23966
0.23629
0.01102
-0.09554
-0.10298
0.00581
-0.09360
-0.09927
0.01095
-0.03978
-0.09063
0.00741
-0.03829
-0.09405
0.00252
-0.01911
-0.04518
0.00395
-0.01317
-0.05027
0.01689
-0.07697
-0.09416
0.02049
-0.07436
-0.09441
-0.00076
-0.05513
-0.00625
-0.05340
0.00864
0.02097
0.03511
0.00463
0.02504
0.03514
0.01648
0.02527
0.17809
0.30261
0.01253
0.02632
0.17958
0.30149
0.09562
0.14640
0.10176
0.13667
0.04867
0.23943
0.47578
0.04787
0.23973
0.46605
0.04056
0.36809
0.24820
0.04101
0.36860
0.24673
-0.00286
-0.00423
0.23310
0.22035
-0.00379
-0.00378
0.23115
0.21897
0.22580
0.27163
0.23277
0.26715
0.21669
0.22189
0.00910
-0.03553
-0.06806
0.00825
-0.04136
-0.07243
0.01045
-0.10126
-0.07152
0.00537
-0.09387
-0.07533
0.00662
-0.00435
-0.02904
0.00118
0.00041
-0.02096
0.01373
-0.06973
-0.07590
0.01385
-0.06526
-0.07509
0.00528
0.02924
0.04351
0.00483
0.03001
0.04287
0.01497
0.10323
0.14528
0.01585
0.10127
0.14666
-0.01078
0.01565
0.21333
0.22371
-0.01225
0.01057
0.21510
0.22441
0.02269
0.17264
0.29655
0.02740
0.16747
0.29626
-0.01170
0.21254
0.18741
-0.00842
0.21581
0.18817
0.21760
0.48061
0.22006
0.48923
-0.02671
-0.03386
-0.02852
-0.03521
-0.00787
0.21773
0.20633
0.21072
0.20214
0.00927
-0.03016
-0.05275
0.00733
-0.02924
-0.05196
0.00322
-0.08969
-0.06442
-0.00279
-0.08183
-0.06340
0.00232
0.00193
-0.00890
0.00374
0.00176
-0.01029
0.00637
-0.05924
-0.07254
0.00570
-0.05651
-0.06622
0.00736
0.03095
0.05558
0.00394
0.03500
0.05564
0.01997
0.08774
0.14708
0.01941
0.08858
0.15411
0.01573
-0.01596
0.19407
0.16864
0.01371
-0.01532
0.19292
0.16774
0.03421
0.13904
0.27215
0.03378
0.14183
0.26982
0.42798
0.18724
0.42994
0.18139
-0.01007
0.19588
0.18606
-0.01020
0.19632
0.19283
0.19519
0.19805
-0.03148
-0.03384
-0.03389
-0.03241
0.00334
-0.03187
-0.03834
0.00674
-0.03668
-0.03762
-0.00234
-0.07728
-0.07306
-0.00208
-0.07436
-0.07086
0.00182
0.00153
0.00701
0.00090
0.00275
0.00118
0.00324
-0.06575
-0.05565
-0.00062
-0.06255
-0.05703
0.00885
0.02731
0.06474
0.00570
0.03073
0.06471
0.01919
0.07373
0.13410
0.01755
0.07297
0.13057
0.02800
0.02075
0.14232
0.29904
0.03086
0.02040
0.14412
0.29375
0.10648
0.23577
0.11017
0.23710
-0.01100
0.17300
0.16838
-0.01351
0.18124
0.16814
-0.01183
0.18176
0.17076
0.18068
0.16718
-0.03945
-0.04343
0.00202
-0.03193
-0.03318
-0.00115
-0.02875
-0.03054
-0.01721
-0.08202
-0.02480
-0.06850
0.00282
-0.00575
0.00041
0.00291
-0.00303
0.00390
0.00558
0.01538
0.06008
0.00197
0.01939
0.06045
0.01306
0.05104
0.12554
0.00984
0.05560
0.12069
-0.00397
0.07402
0.20069
-0.00255
0.07218
0.20098
-0.01024
-0.06655
-0.06523
-0.00766
-0.05662
-0.06465
-0.01387
0.14946
0.15207
-0.01164
0.14533
0.15183
-0.01267
0.17620
0.15451
-0.01306
0.17276
0.15471
0.16055
0.16521
-0.00351
-0.03273
-0.03685
-0.00769
-0.03297
-0.03738
-0.03057
-0.06253
-0.03548
-0.06936
0.00393
-0.01701
0.00430
-0.00095
-0.01339
0.00920
-0.00193
0.00319
0.03952
-0.00232
0.00348
0.03981
0.02475
0.02695
0.09034
0.02875
0.02749
0.09042
-0.00396
-0.05944
-0.07796
-0.00843
-0.05563
-0.07133
-0.00381
0.03734
0.17334
-0.00061
0.03363
0.17365
-0.01102
0.15653
0.12934
-0.01638
0.15566
0.13390
-0.01670
0.15149
0.13446
0.15222
0.13433
-0.00943
-0.05401
-0.03254
-0.00873
-0.05229
-0.03099
-0.00719
-0.01878
-0.00889
-0.00857
-0.02172
-0.00772
-0.03229
-0.04014
0.00154
-0.00642
0.01452
0.00082
-0.00588
0.01552
-0.00600
-0.01106
0.05786
-0.00433
-0.01140
0.06324
-0.03074
-0.08101
-0.03105
-0.07837
-0.01542
0.07353
0.10792
-0.01646
0.07546
0.10741
-0.01777
0.11899
0.10584
-0.01632
0.11488
0.10426
0.10495
0.10712
-0.01846
-0.05588
-0.05138
-0.01708
-0.05823
-0.04775
-0.02029
-0.02833
-0.04044
-0.02136
-0.02908
-0.04279
0.01295
-0.02260
-0.01471
0.00808
-0.01884
-0.01389
-0.01299
-0.02748
0.04949
-0.01612
-0.02470
0.05398
-0.01673
0.09790
0.07946
-0.01225
0.09896
0.08177
-0.01651
0.09134
0.08670
0.09112
0.08151
-0.02236
-0.08430
-0.02835
-0.08118
-0.03050
-0.06747
-0.07358
-0.03696
-0.06600
-0.06688
-0.01698
-0.04778
-0.07821
-0.02246
-0.04561
-0.07759
-0.01001
-0.04414
-0.04954
-0.00937
-0.03852
-0.05282
-0.01560
0.02456
0.03944
-0.01778
0.02614
0.03636
-0.01363
0.06070
0.04926
-0.01490
0.05998
0.05013
0.05500
0.04790
-0.03553
-0.03890
-0.04157
-0.04625
-0.03317
-0.01874
-0.06446
-0.04724
-0.04049
-0.02141
-0.05428
-0.04770
-0.08679
-0.08222
-0.01735
0.01005
0.00514
-0.01326
0.01299
0.00615
-0.01610
0.01819
0.01355
0.01514
0.01706
-0.02780
-0.02017
-0.04436
-0.02548
-0.02429
-0.04953
-0.01097
-0.02659
-0.03011
-0.01264
-0.02659
-0.02165
-0.02144
-0.02353
-0.00299
-0.00664
-0.00844
-0.00383
0.00045
0.02594
0.02016
-0.00006
0.02739
0.01992
0.03195
0.00714
0.03136
0.00465
-0.01047
-0.01088
0.05452
0.05268
-0.01651
0.05696
0.04790
-0.01887
0.05848
0.04759
-0.02234
-0.02717
0.03386
-0.02317
-0.02473
0.03470
0.05240
0.02075
0.05210
0.02195
-0.00963
-0.01294
0.07891
0.07270
-0.01268
0.07915
0.07191
-0.01308
0.08165
0.06067
-0.01324
0.08125
0.05891
-0.02604
-0.03677
-0.02170
0.00701
-0.02329
-0.03689
-0.02180
0.00680
0.09458
0.06365
0.09350
0.06171
-0.02614
-0.02167
-0.00423
-0.02755
-0.02159
-0.00326
-0.04063
-0.02492
-0.04079
-0.02228
-0.00944
-0.01008
0.08850
0.08731
-0.01053
0.09473
0.08384
-0.01080
0.09556
0.08396
-0.01051
0.10777
0.07812
-0.00875
0.10756
0.07734
-0.01123
0.07743
0.08190
-0.00984
0.07741
0.08124
-0.02602
0.00995
0.04076
-0.02603
0.01008
0.04037
-0.01943
0.00390
0.01870
-0.01920
0.00333
0.01995
-0.01482
-0.01992
-0.01565
-0.02020
-0.00866
-0.01031
0.10085
0.09967
-0.00964
0.10079
0.10021
-0.01253
0.10912
0.09225
-0.01200
0.10931
0.09205
-0.00826
0.11867
0.15485
-0.00782
0.11909
0.15474
-0.01652
0.03014
0.11101
-0.01505
0.02985
0.11095
-0.01737
0.03785
0.07440
-0.01615
0.03766
0.07416
-0.03244
0.02293
0.03912
-0.03085
0.02224
0.03731
-0.00910
-0.00870
0.11882
0.11925
-0.01133
0.13654
0.11047
-0.01070
0.13630
0.10980
0.00304
0.14524
0.09907
0.00301
0.14589
0.09778
-0.03763
-0.00899
-0.01121
-0.04036
-0.00929
-0.01303
0.01452
0.14843
0.20056
0.01508
0.14832
0.20051
-0.00174
0.07158
0.13773
-0.00125
0.07153
0.13748
-0.01508
-0.01621
-0.01652
-0.01908
-0.01389
0.04516
0.08496
-0.01193
0.04422
0.08441
-0.01754
0.02620
0.03469
-0.01699
0.02670
0.03328
-0.00822
-0.00986
0.13411
0.12582
-0.01045
0.13438
0.12494
-0.00985
0.14900
0.11404
-0.00970
0.14810
0.11407
-0.00465
0.15716
0.25274
-0.00416
0.15686
0.25365
-0.02999
0.01295
-0.00277
-0.03165
0.01324
-0.00238
-0.00064
0.12041
0.22324
0.00013
0.12003
0.22283
-0.00066
0.10093
0.15001
0.00017
0.10050
0.14984
-0.00692
0.06237
0.08682
-0.00612
0.06122
0.08706
-0.00859
-0.03551
-0.00835
-0.03143
-0.01986
0.04452
0.03230
-0.01789
0.04373
0.03305
-0.00833
-0.00790
0.14679
0.14668
-0.01021
0.15553
0.13230
-0.00958
0.15519
0.13364
0.02224
0.16110
0.12121
0.02199
0.16176
0.12208
-0.03497
0.01947
-0.00367
-0.03329
0.01912
-0.00460
0.02017
0.37151
0.18853
0.02009
0.37227
0.18835
0.00639
0.15204
0.24804
0.00771
0.15186
0.24762
0.00273
0.12769
0.15158
0.00427
0.12623
0.15144
-0.00662
0.07708
0.07610
-0.00585
0.07548
0.07449
-0.05021
-0.01754
-0.03203
-0.04894
-0.01640
-0.03064
-0.01140
0.05345
0.02226
-0.01091
0.05205
0.02164
-0.03097
-0.00908
-0.03142
-0.00845
-0.00712
-0.00825
0.16821
0.15938
-0.00783
0.16850
0.16091
-0.00579
0.17574
0.14596
-0.00557
0.17576
0.14575
0.00337
0.02115
0.20992
0.39611
0.00311
0.02197
0.20862
0.39532
0.34859
0.17694
0.34796
0.17606
0.00857
0.18064
0.25240
0.00992
0.18067
0.25397
0.00319
0.14890
0.14423
0.00363
0.14867
0.14430
-0.01806
0.02511
-0.01535
-0.01540
0.02397
-0.01484
-0.00223
0.08781
0.06168
-0.00096
0.08784
0.06159
-0.03845
-0.00367
-0.02608
-0.03806
-0.00393
-0.02627
-0.00228
0.05897
0.00152
-0.00107
0.05805
0.00174
-0.03527
-0.01152
-0.03541
-0.01360
-0.00619
-0.00616
0.17664
0.17670
-0.00459
0.18966
0.16429
-0.00399
0.18783
0.16404
0.04348
0.04359
0.58860
0.20907
0.04358
0.04367
0.58989
0.20849
0.02408
0.22905
0.42071
0.02510
0.22981
0.42055
0.19739
0.17989
0.19758
0.17982
0.01137
0.21554
0.24923
0.01128
0.21453
0.24924
0.00351
0.17098
0.12693
0.00452
0.16986
0.12679
-0.01000
0.02823
-0.02963
-0.00940
0.02734
-0.02948
0.00019
0.08602
0.03308
0.00175
0.08528
0.03472
-0.03006
-0.00673
-0.02987
-0.03015
-0.00732
-0.03127
0.00378
0.05333
-0.02240
0.00392
0.05310
-0.02304
-0.00232
-0.00290
0.20680
0.19828
-0.00318
0.20647
0.19887
-0.04276
-0.01113
-0.04282
-0.01120
0.04591
0.02983
0.21582
0.54876
0.04691
0.02931
0.21536
0.54741
-0.00344
0.23697
0.21194
-0.00262
0.23748
0.21104
0.02414
0.25680
0.41931
0.02477
0.25638
0.41952
0.21056
0.35420
0.21112
0.35523
0.01291
0.23564
0.22980
0.01339
0.23425
0.22841
0.00240
0.16804
0.10265
0.00375
0.16677
0.10286
-0.00034
0.01829
-0.04584
-0.00037
0.01613
-0.04566
0.00482
0.07766
0.01417
0.00523
0.07693
0.01411
-0.01527
-0.01987
-0.04484
-0.01501
-0.02080
-0.04364
0.01281
0.04214
-0.04228
0.01316
0.04152
-0.04198
0.00238
0.00169
0.21799
0.21845
0.00436
0.06528
0.23086
0.27727
0.00429
0.06544
0.23008
0.27778
0.22319
0.29324
0.22292
0.29471
0.08164
0.22911
0.30910
0.08271
0.22715
0.30858
0.04721
0.22958
0.51846
0.04783
0.22980
0.51857
0.02399
0.01336
0.22332
0.21667
0.02381
0.01367
0.22288
0.21706
0.27139
0.41506
0.27189
0.41580
0.00327
0.14728
0.08272
0.00507
0.14527
0.08306
-0.04410
-0.00564
-0.04471
-0.00413
0.00285
0.01149
-0.06409
0.00210
0.01239
-0.06366
0.01036
0.05408
-0.00589
0.00936
0.05322
-0.00531
0.00228
0.02047
-0.04358
0.00356
0.01945
-0.04220
-0.00135
-0.02385
-0.08024
-0.00122
-0.02448
-0.07914
0.00554
0.00391
0.33234
0.22527
0.00404
0.22423
0.33281
0.00150
0.33090
0.23131
0.00211
0.23044
0.33062
0.05483
0.33193
0.23113
0.05413
0.23090
0.33170
0.07134
0.30905
0.24721
0.07127
0.24645
0.31087
0.03888
0.53711
0.26550
0.04021
0.26608
0.53741
0.02303
0.38241
0.27346
0.02319
0.27356
0.38277
0.01159
0.19385
0.18814
0.01195
0.18908
0.19413
0.00787
0.07061
0.10568
0.00836
0.10517
0.07121
-0.03106
-0.00192
-0.03220
-0.00192
-0.00548
-0.00234
-0.07473
-0.00361
-0.00297
-0.07473
0.00101
0.02680
0.00864
0.02613
0.00173
0.00864
-0.00297
-0.03220
-0.07914
0.00173
-0.00361
-0.04220
0.01058
0.02613
0.07121
0.01859
0.10517
0.19413
0.03420
0.18908
0.38277
0.05422
0.27356
0.53741
0.04382
0.26608
0.31087
-0.00424
0.24645
0.33170
0.00120
0.23090
0.33062
0.00298
0.23044
0.33281
0.00298
0.22423
0.22527
0.00120
0.23131
0.33234
-0.00424
0.23113
0.33090
0.04382
0.24721
0.33193
0.05422
0.26550
0.30905
0.03420
0.27346
0.53711
0.01859
0.18814
0.38241
0.01058
0.10568
0.19385
0.02680
0.07061
0.00101
-0.00234
-0.04358
-0.00548
-0.03106
-0.08024
0.00836
0.01945
-0.00531
0.00787
0.02047
-0.00589
-0.02448
0.00356
-0.06366
-0.02385
0.00228
-0.06409
-0.00122
-0.00413
-0.00135
-0.00564
0.01195
0.05322
0.08306
0.01159
0.05408
0.08272
0.02319
0.14527
0.21706
0.02303
0.14728
0.21667
0.04021
0.41580
0.22288
0.03888
0.41506
0.22332
0.07127
0.27189
0.51857
0.07134
0.27139
0.51846
0.05413
0.22980
0.30858
0.05483
0.22958
0.30910
0.00211
0.22715
0.27778
0.00150
0.22911
0.27727
0.00404
0.29471
0.23008
0.00391
0.29324
0.23086
0.00554
0.22292
0.21845
0.22319
0.21799
0.01239
-0.04471
-0.04364
0.01149
-0.04410
-0.04484
0.00936
0.00210
-0.04198
0.01036
0.00285
-0.04228
0.00507
0.04152
0.01411
0.00327
0.04214
0.01417
0.01316
-0.02080
-0.04566
0.01281
-0.01987
-0.04584
-0.01501
-0.01120
-0.01527
-0.01113
0.01367
0.07693
0.10286
0.01336
0.07766
0.10265
0.02381
0.04783
0.22841
0.41952
0.02399
0.04721
0.22980
0.41931
0.16677
0.23425
0.16804
0.23564
0.08271
0.25638
0.54741
0.08164
0.25680
0.54876
0.06544
0.35523
0.21536
0.06528
0.35420
0.21582
0.00429
0.00169
0.21104
0.19887
0.00436
0.00238
0.21194
0.19828
0.21112
0.23748
0.21056
0.23697
0.20647
0.20680
0.00523
0.01613
-0.02304
0.00482
0.01829
-0.02240
-0.00037
-0.04282
-0.03127
-0.00034
-0.04276
-0.02987
0.00375
0.05310
0.03472
0.00240
0.05333
0.03308
0.00392
-0.00732
-0.02948
0.00378
-0.00673
-0.02963
0.01339
0.08528
0.12679
0.01291
0.08602
0.12693
0.02477
0.16986
0.24924
0.02414
0.17098
0.24923
-0.00262
0.02931
0.17982
0.20849
-0.00344
0.02983
0.17989
0.20907
0.04691
0.21453
0.42055
0.04591
0.21554
0.42071
-0.00318
0.19758
0.16404
-0.00290
0.19739
0.16429
0.22981
0.58989
0.22905
0.58860
-0.03015
-0.01360
-0.03006
-0.01152
-0.00232
0.18783
0.17670
0.18966
0.17664
0.00175
0.02734
0.00174
0.00019
0.02823
0.00152
-0.00940
-0.03541
-0.02627
-0.01000
-0.03527
-0.02608
0.00452
0.05805
0.06159
0.00351
0.05897
0.06168
-0.00107
-0.00393
-0.01484
-0.00228
-0.00367
-0.01535
0.01128
0.08784
0.14430
0.01137
0.08781
0.14423
0.02510
0.14867
0.25397
0.02408
0.14890
0.25240
0.04367
-0.00399
0.17606
0.14575
0.04359
-0.00459
0.17694
0.14596
0.04358
0.18067
0.39532
0.04348
0.18064
0.39611
0.34796
0.20862
0.34859
0.20992
-0.00616
0.17576
0.16091
-0.00619
0.17574
0.15938
0.16850
0.16821
-0.03806
-0.00845
-0.03845
-0.00908
-0.00096
0.02397
0.02164
-0.00223
0.02511
0.02226
-0.01540
-0.03142
-0.03064
-0.01806
-0.03097
-0.03203
0.00363
0.05205
0.07449
0.00319
0.05345
0.07610
-0.01091
-0.01640
-0.00460
-0.01140
-0.01754
-0.00367
0.00992
0.07548
0.15144
0.00857
0.07708
0.15158
0.02197
0.12623
0.24762
0.02115
0.12769
0.24804
0.00311
-0.00557
0.18835
0.12208
0.00337
-0.00579
0.18853
0.12121
0.15186
0.37227
0.15204
0.37151
-0.00783
0.16176
0.13364
-0.00825
0.16110
0.13230
-0.00712
0.15519
0.14668
0.15553
0.14679
-0.04894
-0.05021
-0.00585
0.01912
0.03305
-0.00662
0.01947
0.03230
-0.03329
-0.03143
-0.03497
-0.03551
0.00427
0.04373
0.08706
0.00273
0.04452
0.08682
0.00771
0.06122
0.14984
0.00639
0.06237
0.15001
0.02009
0.10050
0.22283
0.02017
0.10093
0.22324
0.02199
0.12003
0.25365
0.02224
0.12041
0.25274
-0.01789
-0.00835
-0.00238
-0.01986
-0.00859
-0.00277
-0.00958
0.15686
0.11407