# vtk DataFile Version 3.0
Point representing Sub_cellular elem model
ASCII

DATASET UNSTRUCTURED_GRID
POINTS 3657 float
-53.38290 -3.01969 54.09383 
-53.36271 3.21934 54.11458 
-53.04536 -9.21928 53.65683 
-53.03052 9.45363 53.71219 
-50.17530 0.06149 57.69650 
-49.90407 -6.07281 57.38587 
-49.91256 6.21081 57.37655 
-50.37216 -16.85507 54.15842 
-50.25763 16.98948 54.19980 
-49.65884 -12.09544 56.85277 
-49.55407 12.27073 56.93621 
-46.37543 -3.03653 60.54657 
-46.39012 3.13117 60.54283 
-46.12822 -9.17212 60.20799 
-46.10427 9.22923 60.22911 
-46.68966 -19.95900 57.07195 
-46.60375 20.08961 57.08437 
-45.93806 -15.03212 59.18387 
-45.85833 15.11603 59.24109 
-47.28468 -24.50524 53.99676 
-47.22544 24.78226 54.16788 
-47.47378 -29.27185 50.97568 
-47.34718 29.54841 51.09254 
-42.78371 0.01214 63.24771 
-42.71659 -6.15546 63.20578 
-42.70050 6.18950 63.22070 
-42.35545 -12.07321 62.47987 
-42.32074 12.12860 62.53990 
-42.26466 -17.99009 61.51446 
-42.21220 18.03467 61.56661 
-42.86003 -22.93201 59.11373 
-42.79648 23.04326 59.19257 
-43.57019 -27.82948 56.65035 
-43.46212 28.01495 56.73768 
-42.94808 -33.33224 53.94664 
-42.74105 33.53442 53.96210 
-39.08709 -3.05985 65.54225 
-39.06126 3.10658 65.55966 
-38.82246 -9.04043 65.22983 
-38.79384 9.04695 65.22392 
-38.45852 -14.84437 64.54505 
-38.43289 14.88101 64.57206 
-38.33001 -20.64201 63.26096 
-38.29497 20.72257 63.29595 
-39.02015 -25.65813 61.13958 
-38.92342 25.77065 61.20953 
-38.62655 -31.20451 58.85733 
-38.51680 31.31332 58.94963 
-35.53493 0.01648 67.82590 
-35.32960 -5.92838 67.53094 
-35.27184 5.94778 67.55924 
-34.88999 -11.85574 67.30271 
-34.88121 11.88490 67.31533 
-37.94296 -36.65417 56.22129 
-37.81958 36.80812 56.40647 
-34.59303 -17.62823 66.28699 
-34.59728 17.64370 66.30858 
-34.52474 -23.30052 64.99574 
-34.47149 23.33011 65.05383 
-37.25006 -41.44130 52.46177 
-37.12971 41.70938 52.67753 
-34.17156 -28.80944 62.97020 
-34.05986 28.86477 63.06926 
-33.68370 -34.40013 60.77436 
-33.56266 34.45146 60.88554 
-31.04779 -3.14076 69.85071 
-31.01649 3.12431 69.86713 
-30.64808 -9.09103 69.55414 
-30.64824 9.12269 69.59580 
-30.07797 -14.91038 69.03509 
-30.05633 14.91100 69.06110 
-32.81558 -39.66303 57.65410 
-32.70302 39.75268 57.75079 
-29.89347 -20.68143 67.93245 
-29.87138 20.65035 67.97169 
-30.43866 -25.75401 66.10750 
-30.36720 25.74554 66.18433 
-29.96027 -31.31032 64.07958 
-29.86916 31.34348 64.15208 
-32.03443 -44.70063 54.29150 
-31.76207 44.87141 54.46661 
-29.32706 -36.78869 61.55510 
-29.19186 36.84873 61.60836 
-26.50903 -0.00182 71.79059 
-26.45936 -6.28455 71.78565 
-26.43737 6.28409 71.79844 
-25.74478 -12.27383 71.23858 
-25.68872 12.24853 71.23737 
-28.40432 -42.08399 58.52208 
-28.27737 42.14095 58.61305 
-25.45231 -18.04618 70.53687 
-25.41357 18.01175 70.57701 
-25.83876 -23.11661 68.93588 
-25.79515 23.11246 68.98273 
-26.35950 -28.21474 67.18982 
-26.30349 28.24202 67.23703 
-25.70042 -33.69412 64.86012 
-25.64427 33.73719 64.94059 
-27.28212 -47.18601 54.81015 
-27.08160 47.27061 54.83533 
-24.97817 -39.20820 62.33399 
-24.86550 39.26559 62.39462 
-26.26627 -51.36790 50.18733 
-26.01946 51.56858 50.28129 
-21.91771 -3.15695 73.41528 
-21.87539 3.15424 73.39216 
-21.61827 -9.36781 73.04278 
-21.60692 9.39005 73.04907 
-21.37073 -20.36632 71.28121 
-21.36064 20.36794 71.32876 
-21.03880 -15.21325 72.41910 
-20.97688 15.23525 72.44943 
-21.77836 -25.49760 69.70958 
-21.70938 25.50807 69.72611 
-22.11622 -30.49721 67.69414 
-22.06447 30.54012 67.72526 
-23.77553 -44.50754 58.93092 
-23.64389 44.58992 58.97115 
-21.40622 -35.97134 65.33484 
-21.30034 36.02216 65.37758 
-22.60685 -49.66079 54.99265 
-22.42911 49.74912 55.06012 
-20.29000 -41.44251 62.41865 
-20.16822 41.47020 62.48727 
-21.18039 -53.93713 50.38559 
-20.91114 54.06094 50.48135 
-17.33872 -0.00552 74.94878 
-17.17684 -6.23853 74.59941 
-17.19219 6.22890 74.59607 
-17.08552 -17.60565 73.14846 
-17.01923 17.60622 73.17759 
-17.38103 -22.75865 71.97834 
-17.34932 22.75968 72.00393 
-16.91586 -12.41627 74.16660 
-16.86948 12.39836 74.18524 
-17.60356 -27.78007 70.14744 
-17.58244 27.78730 70.17531 
-17.92091 -32.76907 68.12761 
-17.86518 32.80677 68.15467 
-19.01466 -46.73302 58.94935 
-18.91498 46.76255 59.00277 
-16.82962 -38.21028 65.45473 
-16.69782 38.23332 65.50784 
-17.65707 -51.63500 54.86860 
-17.48274 51.71163 54.91526 
-15.59653 -43.67223 62.55923 
-15.48449 43.71043 62.59329 
-12.87316 -3.17382 75.72631 
-12.84285 3.16368 75.76481 
-16.06145 -56.00493 50.28592 
-15.78664 56.14227 50.40387 
-12.95290 -19.89444 73.63210 
-12.93422 19.90117 73.64455 
-12.67943 -9.43422 75.34142 
-12.67645 9.39283 75.34289 
-13.08764 -25.00677 72.14678 
-13.03982 24.98577 72.17509 
-12.66430 -14.72221 74.68162 
-12.62116 14.69381 74.69942 
-13.21744 -30.04106 70.26956 
-13.18738 30.01581 70.30778 
-13.60169 -34.81417 67.98377 
-13.51491 34.80321 68.03330 
-14.16578 -48.72306 58.84451 
-14.07701 48.76199 58.87383 
-12.32036 -40.23306 65.27464 
-12.25394 40.25082 65.26243 
-12.76969 -53.63074 54.77295 
-12.55630 53.69614 54.80259 
-10.95757 -45.51558 62.00616 
-10.80769 45.56722 62.07015 
-8.52409 0.00059 76.51685 
-8.46104 -11.70460 75.79669 
-8.44713 11.70274 75.78035 
-8.45613 -6.35731 76.44930 
-8.41193 6.35256 76.45753 
-8.59360 -16.89637 75.08694 
-8.56780 16.89735 75.09640 
-8.74009 -22.02624 73.73345 
-8.66918 22.03707 73.74940 
-8.91204 -31.96668 70.09478 
-8.84636 32.00876 70.12838 
-8.72813 -27.16268 72.22329 
-8.68422 27.16447 72.23868 
-9.17686 -36.81207 67.86426 
-9.12379 36.87002 67.85889 
-10.03268 -57.17937 51.15756 
-9.73326 57.19320 51.12911 
-9.44523 -50.57441 58.31895 
-9.33994 50.58259 58.36352 
-7.77321 -42.10186 64.78988 
-7.67036 42.14121 64.79798 
-6.26816 -47.36973 61.63283 
-6.09317 47.42097 61.62881 
-6.52897 -54.17009 55.34757 
-6.34895 54.17589 55.38378 
-4.18555 -3.18405 76.95412 
-4.14782 3.20490 76.96067 
-4.22923 -8.57849 76.56897 
-4.19975 8.57539 76.57147 
-4.25522 -13.91944 75.91198 
-4.23480 13.90486 75.93945 
-4.36298 -19.00200 74.96817 
-4.34079 19.01971 74.96781 
-4.36533 -24.05999 73.57589 
-4.29139 24.08854 73.57543 
-4.37244 -28.94531 71.83293 
-4.34633 28.92019 71.82449 
-4.49936 -33.77008 69.68213 
-4.45952 33.78832 69.68465 
-4.66176 -38.55098 67.21399 
-4.59230 38.58507 67.20867 
-3.50178 -57.58749 51.84814 
-3.24835 57.60518 51.83421 
-3.25869 -50.93568 58.83696 
-3.10644 50.95107 58.78789 
-3.08762 -43.79534 64.16627 
-2.95935 43.81610 64.16553 
-0.08968 -54.46426 55.86475 
-0.07450 -47.46936 61.65994 
-0.04498 -40.20525 66.58131 
-0.01676 -35.41978 69.04412 
0.00377 -30.63686 71.38150 
-0.04510 -25.72064 73.14522 
-0.00819 -20.91018 74.73433 
0.00014 -15.89015 75.74922 
-0.00307 -10.74955 76.60794 
-0.03338 -5.35846 76.99451 
-0.00000 -0.00000 77.28308 
0.03338 5.35846 76.99451 
0.00307 10.74955 76.60794 
-0.00014 15.89015 75.74922 
0.00819 20.91018 74.73433 
0.04510 25.72064 73.14522 
-0.00377 30.63686 71.38150 
0.01676 35.41978 69.04412 
0.04498 40.20525 66.58131 
0.07450 47.46936 61.65994 
0.08968 54.46426 55.86475 
2.95935 -43.81610 64.16553 
3.08762 43.79534 64.16627 
3.10644 -50.95107 58.78789 
3.25869 50.93568 58.83696 
3.24835 -57.60518 51.83421 
3.50178 57.58749 51.84814 
4.59230 -38.58507 67.20867 
4.66176 38.55098 67.21399 
4.45952 -33.78832 69.68465 
4.49936 33.77008 69.68213 
4.34633 -28.92019 71.82449 
4.37244 28.94531 71.83293 
4.29139 -24.08854 73.57543 
4.36533 24.05999 73.57589 
4.34079 -19.01971 74.96781 
4.36298 19.00200 74.96817 
4.23480 -13.90486 75.93945 
4.25522 13.91944 75.91198 
4.19975 -8.57539 76.57147 
4.22923 8.57849 76.56897 
4.14782 -3.20490 76.96067 
4.18555 3.18405 76.95412 
6.34895 -54.17589 55.38378 
6.52897 54.17009 55.34757 
6.09317 -47.42097 61.62881 
6.26816 47.36973 61.63283 
7.67036 -42.14121 64.79798 
7.77321 42.10186 64.78988 
9.33994 -50.58259 58.36352 
9.44523 50.57441 58.31895 
9.73326 -57.19320 51.12911 
10.03268 57.17937 51.15756 
9.12379 -36.87002 67.85889 
9.17686 36.81207 67.86426 
8.68422 -27.16447 72.23868 
8.72813 27.16268 72.22329 
8.84636 -32.00876 70.12838 
8.91204 31.96668 70.09478 
8.66918 -22.03707 73.74940 
8.74009 22.02624 73.73345 
8.56780 -16.89735 75.09640 
8.59360 16.89637 75.08694 
8.41193 -6.35256 76.45753 
8.45613 6.35731 76.44930 
8.44713 -11.70274 75.78035 
8.46104 11.70460 75.79669 
8.52409 -0.00059 76.51685 
10.80769 -45.56722 62.07015 
10.95757 45.51558 62.00616 
12.55630 -53.69614 54.80259 
12.76969 53.63074 54.77295 
12.25394 -40.25082 65.26243 
12.32036 40.23306 65.27464 
14.07701 -48.76199 58.87383 
14.16578 48.72306 58.84451 
13.51491 -34.80321 68.03330 
13.60169 34.81417 67.98377 
13.18738 -30.01581 70.30778 
13.21744 30.04106 70.26956 
12.62116 -14.69381 74.69942 
12.66430 14.72221 74.68162 
13.03982 -24.98577 72.17509 
13.08764 25.00677 72.14678 
12.67645 -9.39283 75.34289 
12.67943 9.43422 75.34142 
12.93422 -19.90117 73.64455 
12.95290 19.89444 73.63210 
15.78664 -56.14227 50.40387 
16.06145 56.00493 50.28592 
12.84285 -3.16368 75.76481 
12.87316 3.17382 75.72631 
15.48449 -43.71043 62.59329 
15.59653 43.67223 62.55923 
17.48274 -51.71163 54.91526 
17.65707 51.63500 54.86860 
16.69782 -38.23332 65.50784 
16.82962 38.21028 65.45473 
18.91498 -46.76255 59.00277 
19.01466 46.73302 58.94935 
17.86518 -32.80677 68.15467 
17.92091 32.76907 68.12761 
17.58244 -27.78730 70.17531 
17.60356 27.78007 70.14744 
16.86948 -12.39836 74.18524 
16.91586 12.41627 74.16660 
17.34932 -22.75968 72.00393 
17.38103 22.75865 71.97834 
17.01923 -17.60622 73.17759 
17.08552 17.60565 73.14846 
17.19219 -6.22890 74.59607 
17.17684 6.23853 74.59941 
17.33872 0.00552 74.94878 
20.91114 -54.06094 50.48135 
21.18039 53.93713 50.38559 
20.16822 -41.47020 62.48727 
20.29000 41.44251 62.41865 
22.42911 -49.74912 55.06012 
22.60685 49.66079 54.99265 
21.30034 -36.02216 65.37758 
21.40622 35.97134 65.33484 
23.64389 -44.58992 58.97115 
23.77553 44.50754 58.93092 
22.06447 -30.54012 67.72526 
22.11622 30.49721 67.69414 
21.70938 -25.50807 69.72611 
[...]
CELL_DATA 40900
SCALARS Strain double 1
LOOKUP_TABLE default
-0.01163
-0.00885
-0.03138
-0.02909
-0.00376
-0.02843
-0.04072
-0.03547
-0.06696
-0.03559
-0.05980
-0.01830
-0.01589
0.02404
0.01913
-0.03438
0.02108
0.00827
-0.02875
0.02521
0.00706
-0.03485
-0.10879
-0.06157
-0.03760
-0.11445
-0.06119
0.01811
-0.07535
0.01379
-0.08931
-0.02378
-0.01949
0.06798
0.07105
-0.02540
0.07807
0.07019
-0.03092
0.08505
0.05075
-0.02728
0.08594
0.05546
-0.05709
-0.06281
-0.06951
-0.10730
-0.04678
-0.05616
-0.06515
-0.10746
0.03589
-0.05385
0.03378
-0.06165
-0.05193
-0.05877
-0.08808
-0.04740
-0.06218
-0.09775
-0.08576
-0.10633
-0.08768
-0.11079
-0.02183
-0.02027
0.11747
0.12552
-0.02543
0.13218
0.11739
-0.02266
0.13226
0.11447
-0.01316
0.14356
0.07590
-0.01465
0.14155
0.06975
-0.03157
-0.03271
-0.02158
-0.02331
-0.03712
-0.02166
-0.05122
-0.02433
-0.06107
-0.04150
-0.02977
-0.05702
-0.03842
-0.03718
-0.06417
-0.02946
-0.03652
-0.06962
-0.07598
-0.10392
-0.07271
-0.10770
-0.02393
-0.01784
0.15687
0.15187
-0.02418
0.15311
0.15468
-0.02303
0.16870
0.15535
-0.01870
0.17477
0.15638
0.01075
0.10852
0.08990
0.01779
0.10559
0.08211
-0.03021
-0.01527
0.01945
-0.02871
-0.01491
0.01844
-0.02428
-0.00683
-0.01177
-0.02607
-0.00784
-0.01317
-0.04323
-0.02836
-0.04188
-0.04282
-0.02457
-0.04413
-0.02314
-0.02520
0.19958
0.20026
-0.02304
0.22956
0.19770
-0.02190
0.22800
0.19091
-0.00616
0.23620
0.26194
-0.00881
0.23704
0.26189
-0.05325
-0.06923
-0.09632
-0.04231
-0.07151
-0.10530
0.00072
0.04754
0.13082
0.00188
0.05257
0.13123
-0.01267
0.03898
0.05523
-0.01032
0.03790
0.05536
-0.07239
-0.09160
-0.07823
-0.08242
-0.01220
0.00570
0.01273
-0.01341
0.00503
0.00585
-0.01101
-0.01721
-0.05176
-0.00480
-0.02242
-0.05030
-0.02329
-0.02267
0.25006
0.23146
-0.01534
0.24224
0.23149
-0.00068
0.26437
0.22509
-0.00531
0.26934
0.22596
0.04093
0.21981
0.30918
0.03498
0.22613
0.30884
-0.04865
-0.04423
-0.08817
-0.04131
-0.04433
-0.08887
-0.00328
0.10395
0.17858
-0.00256
0.10676
0.18667
-0.00137
0.07927
0.08674
0.00571
0.07257
0.08647
-0.01080
0.02776
0.00481
-0.00476
0.02181
-0.00007
-0.07411
-0.09052
-0.08802
-0.11002
-0.01003
-0.00359
-0.04195
-0.01362
-0.00776
-0.04567
-0.01794
-0.01741
0.25337
0.25934
-0.01583
0.27692
0.25336
-0.01894
0.27852
0.25375
-0.00305
0.28131
0.47562
-0.00558
0.26755
0.48501
-0.03339
-0.03832
-0.07758
-0.02232
-0.04293
-0.07542
0.01430
0.37535
0.21641
0.01934
0.37372
0.21350
0.00324
0.16204
0.19544
0.00848
0.15628
0.20148
0.00434
0.10518
0.09360
0.00461
0.10609
0.09406
-0.00095
0.04368
0.00097
0.00364
0.03851
0.00997
-0.05692
-0.08263
-0.09429
-0.05162
-0.08695
-0.09716
0.00025
0.00430
-0.05191
0.00572
0.00254
-0.05270
-0.09712
-0.04174
-0.10123
-0.04410
-0.01616
-0.01848
0.30608
0.29567
-0.01505
0.30093
0.28516
0.02956
0.30548
0.25368
0.02999
0.30413
0.25590
0.04407
0.02520
0.27965
0.43631
0.04012
0.02777
0.28878
0.44084
0.75942
0.30191
0.75663
0.30322
0.00864
0.21257
0.23363
0.01345
0.20814
0.22272
0.00191
0.12900
0.07978
0.00346
0.12739
0.07993
-0.00142
-0.04959
-0.08989
-0.00191
-0.04301
-0.09875
0.01032
0.04988
-0.01516
0.00563
0.04378
-0.01295
-0.04446
-0.07502
-0.08454
-0.04085
-0.07899
-0.08574
0.00896
0.00280
-0.07124
0.00980
0.00289
-0.07215
-0.10658
-0.04490
-0.11702
-0.04319
-0.01408
-0.01389
0.31247
0.31971
-0.02071
0.32954
0.28794
-0.02179
0.34075
0.28732
0.04808
0.01958
0.89862
0.35584
0.04873
0.02257
0.88261
0.35425
0.02798
0.34767
0.48616
0.02903
0.34344
0.48745
0.34064
0.33677
0.33433
0.33460
0.00691
0.25567
0.22163
0.01188
0.26349
0.22001
0.00635
0.14863
0.06093
0.00468
0.15122
0.06248
-0.00301
-0.03912
-0.10127
0.00548
-0.04064
-0.10229
0.01152
0.04290
-0.02940
0.01442
0.04153
-0.04096
-0.03805
-0.08677
-0.10048
-0.03560
-0.09314
-0.09498
0.02067
0.00127
-0.09874
0.02038
-0.00552
-0.09215
-0.01083
-0.01151
0.34916
0.34172
-0.01616
0.34016
0.34426
-0.12170
-0.06936
-0.13182
-0.07191
0.03941
0.01480
0.39492
0.85115
0.03322
0.02187
0.39695
0.87018
-0.01687
0.43238
0.36638
-0.01481
0.44032
0.36975
0.02373
0.38302
0.49568
0.02240
0.38241
0.49767
0.37126
0.63977
0.35948
0.63904
0.00868
0.20612
0.27521
0.00948
0.22154
0.27286
0.00305
0.14942
0.05025
0.01085
0.14001
0.05022
0.00846
-0.05621
-0.12664
0.01579
-0.04800
-0.12618
0.01294
0.03608
-0.07036
0.01420
0.03018
-0.06287
-0.00780
-0.09855
-0.13025
0.00023
-0.10194
-0.13541
0.02977
-0.01761
-0.12684
0.02446
-0.02631
-0.12190
-0.00525
-0.00609
0.37380
0.38461
-0.00549
0.05772
0.37588
0.50240
-0.00438
0.05754
0.38000
0.50275
0.38181
0.53738
0.37651
0.53339
0.06859
0.38821
0.61814
0.06997
0.39007
0.61968
0.03820
0.40140
0.84763
0.03655
0.38947
0.85177
0.01931
0.00876
0.24868
0.18108
0.02490
0.01469
0.24694
0.17368
0.39310
0.49803
0.39435
0.49026
0.00711
0.11147
0.02323
0.00536
0.11386
0.02464
-0.12208
-0.10492
-0.12465
-0.11089
-0.05073
0.00834
-0.15084
-0.05295
0.01621
-0.14537
0.01152
0.02005
-0.08019
0.01687
0.01580
-0.07678
-0.01697
-0.02297
-0.12254
-0.01925
-0.02396
-0.12630
0.00177
-0.07167
-0.16038
0.01508
-0.08331
-0.16086
-0.00275
0.00445
0.58754
0.37036
0.00008
0.36578
0.59299
-0.00922
0.60868
0.38134
-0.01186
0.38849
0.60213
0.04398
0.53233
0.37950
0.05142
0.37344
0.52856
0.04396
0.63881
0.28429
0.04610
0.28244
0.63453
0.03500
0.85899
0.43662
0.02552
0.42908
0.86098
0.00993
0.43199
0.35137
0.01660
0.36053
0.42503
0.01456
0.15717
0.19072
0.01774
0.18496
0.15435
0.00263
0.00188
0.06356
0.00290
0.06205
0.00334
-0.08796
-0.12671
-0.09133
-0.12671
-0.03536
-0.05255
-0.15619
-0.04682
-0.03883
-0.15619
-0.02173
-0.00407
-0.07401
-0.00547
-0.02225
-0.07401
-0.03883
-0.09133
-0.16086
-0.02225
-0.04682
-0.12630
0.01137
-0.00547
0.00334
0.01789
0.06205
0.15435
0.03141
0.18496
0.42503
0.04085
0.36053
0.86098
0.09526
0.42908
0.63453
0.07436
0.28244
0.52856
0.00600
0.37344
0.60213
-0.00120
0.38849
0.59299
-0.00120
0.36578
0.37036
0.00600
0.38134
0.58754
0.07436
0.37950
0.60868
0.09526
0.28429
0.53233
0.04085
0.43662
0.63881
0.03141
0.35137
0.85899
0.01789
0.19072
0.43199
0.01137
0.06356
0.15717
-0.00407
0.00188
-0.02173
-0.05255
-0.12254
-0.03536
-0.08796
-0.16038
0.00290
-0.02396
-0.07678
0.00263
-0.02297
-0.08019
-0.08331
-0.01925
-0.14537
-0.07167
-0.01697
-0.15084
0.01508
-0.11089
0.00177
-0.10492
0.01774
0.01580
0.02464
0.01456
0.02005
0.02323
0.01660
0.11386
0.17368
0.00993
0.11147
0.18108
0.02552
0.49026
0.24694
0.03500
0.49803
0.24868
0.04610
0.39435
0.85177
0.04396
0.39310
0.84763
0.05142
0.38947
0.61968
0.04398
0.40140
0.61814
-0.01186
0.39007
0.50275
-0.00922
0.38821
0.50240
0.00008
0.53339
0.38000
0.00445
0.53738
0.37588
-0.00275
0.37651
0.38461
0.38181
0.37380
0.01621
-0.12465
-0.13541
0.00834
-0.12208
-0.13025
0.01687
-0.05295
-0.12190
0.01152
-0.05073
-0.12684
0.00536
-0.02631
-0.06287
0.00711
-0.01761
-0.07036
0.02446
-0.10194
-0.12618
0.02977
-0.09855
-0.12664
0.00023
-0.07191
-0.00780
-0.06936
0.01469
0.03018
0.05022
0.00876
0.03608
0.05025
0.02490
0.03655
0.27286
0.49767
0.01931
0.03820
0.27521
0.49568
0.14001
0.22154
0.14942
0.20612
0.06997
0.38241
0.87018
0.06859
0.38302
0.85115
0.05754
0.63904
0.39695
0.05772
0.63977
0.39492
-0.00438
-0.00609
0.36975
0.34426
-0.00549
-0.00525
0.36638
0.34172
0.35948
0.44032
0.37126
0.43238
0.34016
0.34916
0.01420
-0.04800
-0.09215
0.01294
-0.05621
-0.09874
0.01579
-0.13182
-0.09498
0.00846
-0.12170
-0.10048
0.01085
-0.00552
-0.04096
0.00305
0.00127
-0.02940
0.02038
-0.09314
-0.10229
0.02067
-0.08677
-0.10127
0.00948
0.04153
0.06248
0.00868
0.04290
0.06093
0.02240
0.15122
0.22001
0.02373
0.14863
0.22163
-0.01481
0.02187
0.33460
0.35425
-0.01687
0.01480
0.33677
0.35584
0.03322
0.26349
0.48745
0.03941
0.25567
0.48616
-0.01616
0.33433
0.28732
-0.01151
0.34064
0.28794
0.34344
0.88261
0.34767
0.89862
-0.03560
-0.04319
-0.03805
-0.04490
-0.01083
0.34075
0.31971
0.32954
0.31247
0.01442
-0.04064
-0.07215
0.01152
-0.03912
-0.07124
0.00548
-0.11702
-0.08574
-0.00301
-0.10658
-0.08454
0.00468
0.00289
-0.01295
0.00635
0.00280
-0.01516
0.00980
-0.07899
-0.09875
0.00896
-0.07502
-0.08989
0.01188
0.04378
0.07993
0.00691
0.04988
0.07978
0.02903
0.12739
0.22272
0.02798
0.12900
0.23363
0.02257
-0.02179
0.30322
0.25590
0.01958
-0.02071
0.30191
0.25368
0.04873
0.20814
0.44084
0.04808
0.21257
0.43631
0.75663
0.28878
0.75942
0.27965
-0.01389
0.30413
0.28516
-0.01408
0.30548
0.29567
0.30093
0.30608
-0.04085
-0.04410
-0.04446
-0.04174
0.00563
-0.04301
-0.05270
0.01032
-0.04959
-0.05191
-0.00191
-0.10123
-0.09716
-0.00142
-0.09712
-0.09429
0.00346
0.00254
0.00997
0.00191
0.00430
0.00097
0.00572
-0.08695
-0.07542
0.00025
-0.08263
-0.07758
0.01345
0.03851
0.09406
0.00864
0.04368
0.09360
0.02777
0.10609
0.20148
0.02520
0.10518
0.19544
0.04012
0.02999
0.21350
0.48501
0.04407
0.02956
0.21641
0.47562
0.15628
0.37372
0.16204
0.37535
-0.01505
0.26755
0.25375
-0.01848
0.28131
0.25336
-0.01616
0.27852
0.25934
0.27692
0.25337
-0.05162
-0.05692
0.00364
-0.04293
-0.04567
-0.00095
-0.03832
-0.04195
-0.02232
-0.11002
-0.03339
-0.09052
0.00461
-0.00776
-0.00007
0.00434
-0.00359
0.00481
0.00848
0.02181
0.08647
0.00324
0.02776
0.08674
0.01934
0.07257
0.18667
0.01430
0.07927
0.17858
-0.00558
0.10676
0.30884
-0.00305
0.10395
0.30918
-0.01362
-0.08802
-0.08887
-0.01003
-0.07411
-0.08817
-0.01894
0.22613
0.22596
-0.01583
0.21981
0.22509
-0.01741
0.26934
0.23149
-0.01794
0.26437
0.23146
0.24224
0.25006
-0.00476
-0.04433
-0.05030
-0.01080
-0.04423
-0.05176
-0.04131
-0.08242
-0.04865
-0.09160
0.00571
-0.02242
0.00585
-0.00137
-0.01721
0.01273
-0.00256
0.00503
0.05536
-0.00328
0.00570
0.05523
0.03498
0.03790
0.13123
0.04093
0.03898
0.13082
-0.00480
-0.07823
-0.10530
-0.01101
-0.07239
-0.09632
-0.00531
0.05257
0.26189
-0.00068
0.04754
0.26194
-0.01534
0.23704
0.19091
-0.02267
0.23620
0.19770
-0.02329
0.22800
0.20026
0.22956
0.19958
-0.01341
-0.07151
-0.04413
-0.01220
-0.06923
-0.04188
-0.01032
-0.02457
-0.01317
-0.01267
-0.02836
-0.01177
-0.04231
-0.05325
0.00188
-0.00784
0.01844
0.00072
-0.00683
0.01945
-0.00881
-0.01491
0.08211
-0.00616
-0.01527
0.08990
-0.04282
-0.10770
-0.04323
-0.10392
-0.02190
0.10559
0.15638
-0.02304
0.10852
0.15535
-0.02520
0.17477
0.15468
-0.02314
0.16870
0.15187
0.15311
0.15687
-0.02607
-0.07271
-0.06962
-0.02428
-0.07598
-0.06417
-0.02871
-0.03652
-0.05702
-0.03021
-0.03718
-0.06107
0.01779
-0.02977
-0.02166
0.01075
-0.02433
-0.02158
-0.01870
-0.03712
0.06975
-0.02303
-0.03271
0.07590
-0.02418
0.14155
0.11447
-0.01784
0.14356
0.11739
-0.02393
0.13226
0.12552
0.13218
0.11747
-0.02946
-0.11079
-0.03842
-0.10633
-0.04150
-0.08768
-0.09775
-0.05122
-0.08576
-0.08808
-0.02331
-0.06218
-0.10746
-0.03157
-0.05877
-0.10730
-0.01465
-0.06165
-0.06515
-0.01316
-0.05385
-0.06951
-0.02266
0.03378
0.05546
-0.02543
0.03589
0.05075
-0.02027
0.08594
0.07019
-0.02183
0.08505
0.07105
0.07807
0.06798
-0.04740
-0.05193
-0.05616
-0.06281
-0.04678
-0.02728
-0.08931
-0.06119
-0.05709
-0.03092
-0.07535
-0.06157
-0.11445
-0.10879
-0.02540
0.01379
0.00706
-0.01949
0.01811
0.00827
-0.02378
0.02521
0.01913
0.02108
0.02404
-0.03760
-0.02875
-0.05980
-0.03485
-0.03438
-0.06696
-0.01589
-0.03559
-0.04072
-0.01830
-0.03547
-0.02909
-0.02843
-0.03138
-0.00376
-0.00885
-0.01163
-0.00534
0.00055
0.03656
0.02787
-0.00011
0.03844
0.02770
0.04479
0.00958
0.04361
0.00615
-0.01550
-0.01623
0.07717
0.07448
-0.02391
0.08081
0.06726
-0.02741
0.08310
0.06707
-0.03126
-0.03976
0.04823
-0.03312
-0.03590
0.04935
0.07359
0.02655
0.07294
0.02859
-0.01471
-0.01939
0.11352
0.10398
-0.01910
0.11374
0.10311
-0.01936
0.11739
0.08543
-0.01982
0.11670
0.08338
-0.03931
-0.05141
-0.03006
0.00603
-0.03498
-0.05225
-0.03011
0.00666
0.13632
0.08936
0.13457
0.08653
-0.03518
-0.02848
-0.00658
-0.03730
-0.02859
-0.00467
-0.05450
-0.03417
-0.05495
-0.03012
-0.01439
-0.01528
0.12779
0.12627
-0.01577
0.13739
0.12023
-0.01632
0.13851
0.12068
-0.01584
0.15700
0.11082
-0.01327
0.15648
0.10990
-0.01600
0.11065
0.11605
-0.01440
0.11082
0.11584
-0.03689
0.01459
0.05525
-0.03683
0.01461
0.05537
-0.02651
0.00634
0.02509
-0.02636
0.00532
0.02744
-0.01923
-0.02794
-0.02060
-0.02815
-0.01295
-0.01525
0.14722
0.14472
-0.01443
0.14689
0.14577
-0.01811
0.16004
0.13277
-0.01727
0.15996
0.13297
-0.01208
0.17511
0.23018
-0.01162
0.17524
0.23068
-0.02361
0.04248
0.16191
-0.02138
0.04196
0.16266
-0.02506
0.05379
0.10640
-0.02330
0.05341
0.10658
-0.04579
0.03279
0.05551
-0.04346
0.03167
0.05319
-0.01319
-0.01263
0.17483
0.17569
-0.01631
0.20361
0.16118
-0.01505
0.20310
0.16046
0.00408
0.21759
0.14311
0.00369
0.21880
0.14136
-0.05123
-0.01251
-0.01672
-0.05547
-0.01303
-0.01915
0.02014
0.22259
0.30812
0.02101
0.22225
0.30854
-0.00281
0.10269
0.20498
-0.00219
0.10262
0.20514
-0.02046
-0.02178
-0.02264
-0.02599
-0.02032
0.06454
0.12332
-0.01713
0.06294
0.12288
-0.02421
0.03691
0.04927
-0.02362
0.03761
0.04722
-0.01158
-0.01370
0.19993
0.18587
-0.01441
0.20008
0.18472
-0.01363
0.22503
0.16686
-0.01349
0.22349
0.16716
-0.00653
0.23870
0.39898
-0.00570
0.23807
0.40070
-0.04031
0.01814
-0.00424
-0.04326
0.01856
-0.00333
-0.00058
0.17743
0.35054
0.00050
0.17685
0.35017
-0.00116
0.14701
0.22621
0.00016
0.14626
0.22633
-0.00963
0.08931
0.12686
-0.00847
0.08756
0.12765
-0.01075
-0.04854
-0.01096
-0.04232
-0.02741
0.06311
0.04564
-0.02447
0.06183
0.04718
-0.01139
-0.01085
0.21973
0.21983
-0.01384
0.23523
0.19611
-0.01289
0.23438
0.19844
0.03181
0.24600
0.17814
0.03126
0.24667
0.17975
-0.04795
0.02750
-0.00495
-0.04544
0.02685
-0.00614
0.02898
0.63355
0.29090
0.02914
0.63571
0.29026
0.00926
0.22856
0.39500
0.01125
0.22817
0.39471
0.00399
0.18881
0.22946
0.00642
0.18632
0.22954
-0.00905
0.11096
0.11070
-0.00775
0.10840
0.10840
-0.06697
-0.02445
-0.04408
-0.06531
-0.02261
-0.04168
-0.01540
0.07591
0.03163
-0.01466
0.07379
0.03075
-0.04235
-0.01126
-0.04307
-0.01005
-0.00962
-0.01102
0.25627
0.24072
-0.01044
0.25655
0.24325
-0.00740
0.27018
0.21823
-0.00708
0.26992
0.21831
0.00525
0.03048
0.32668
0.69176
0.00489
0.03192
0.32440
0.69097
0.58943
0.27437
0.58897
0.27262
0.01271
0.27657
0.40508
0.01475
0.27649
0.40805
0.00503
0.22298
0.21791
0.00588
0.22241
0.21828
-0.02443
0.03511
-0.02101
-0.02054
0.03354
-0.02001
-0.00239
0.12708
0.08925
-0.00056
0.12703
0.08927
-0.05116
-0.00571
-0.03514
-0.05105
-0.00572
-0.03520
-0.00241
0.08413
0.00205
-0.00055
0.08266
0.00267
-0.04760
-0.01356
-0.04777
-0.01654
-0.00831
-0.00821
0.27020
0.27061
-0.00591
0.29374
0.24885
-0.00502
0.29061
0.24887
0.06258
0.06249
1.18010
0.32904
0.06298
0.06254
1.18328
0.32771
0.03481
0.36348
0.74534
0.03638
0.36466
0.74515
0.30861
0.27710
0.30865
0.27729
0.01694
0.33696
0.39847
0.01689
0.33519
0.39871
0.00587
0.25926
0.19019
0.00749
0.25726
0.19005
-0.01299
0.03959
-0.04049
-0.01238
0.03829
-0.04004
0.00115
0.12460
0.04681
0.00354
0.12325
0.04958
-0.04022
-0.00944
-0.03960
-0.04064
-0.01015
-0.04149
0.00642
0.07590
-0.03089
0.00656
0.07558
-0.03188
-0.00306
-0.00375
0.32306
0.30703
-0.00414
0.32226
0.30834
-0.05766
-0.01324
-0.05771
-0.01321
0.06616
0.04261
0.33956
1.05821
0.06779
0.04188
0.33924
1.05553
-0.00447
0.37793
0.33394
-0.00330
0.37910
0.33217
0.03509
0.41283
0.73835
0.03619
0.41191
0.73908
0.33374
0.61678
0.33435
0.61925
0.01958
0.37408
0.36164
0.02041
0.37201
0.35917
0.00452
0.25461
0.15155
0.00659
0.25261
0.15205
0.00021
0.02576
-0.06219
-0.00016
0.02260
-0.06172
0.00810
0.11236
0.02007
0.00859
0.11115
0.02003
-0.02017
-0.02716
-0.05996
-0.02012
-0.02848
-0.05797
0.01886
0.06010
-0.05794
0.01949
0.05917
-0.05738
0.00330
0.00238
0.34333
0.34445
0.00596
0.09407
0.36816
0.45587
0.00580
0.09385
0.36647
0.45750
0.35412
0.48622
0.35328
0.48911
0.11859
0.36470
0.51641
0.12083
0.36045
0.51591
0.06788
0.36380
0.96682
0.06906
0.36395
0.96733
0.03527
0.02038
0.34978
0.33929
0.03505
0.02084
0.34892
0.34011
0.43900
0.72710
0.43966
0.72861
0.00599
0.22105
0.12065
0.00865
0.21783
0.12136
-0.05892
-0.00539
-0.05981
-0.00317
0.00433
0.01690
-0.08605
0.00334
0.01791
-0.08551
0.01578
0.07794
-0.00872
0.01419
0.07646
-0.00760
0.00420
0.02945
-0.05957
0.00619
0.02776
-0.05746
-0.00146
-0.03202
-0.10624
-0.00146
-0.03300
-0.10444
0.00764
0.00520
0.56662
0.35910
0.00539
0.35674
0.56818
0.00168
0.56350
0.36924
0.00261
0.36716
0.56362
0.07856
0.56620
0.36867
0.07778
0.36754
0.56658
0.10391
0.51532
0.39738
0.10372
0.39599
0.51922
0.05635
1.00871
0.42885
0.05832
0.43006
1.00939
0.03382
0.65507
0.44135
0.03416
0.44101
0.65593
0.01807
0.29979
0.28950
0.01867
0.29071
0.30033
0.01218
0.10181
0.15547
0.01302
0.15457
0.10292
-0.04167
-0.00039
-0.04306
-0.00039
-0.00747
-0.00231
-0.09991
-0.00424
-0.00353
-0.09991
0.00245
0.03853
0.01204
0.03740
0.00351
0.01204
-0.00353
-0.04306
-0.10444
0.00351
-0.00424
-0.05746
0.01639
0.03740
0.10292
0.02805
0.15457
0.30033
0.04974
0.29071
0.65593
0.07876
0.44101
1.00939
0.06263
0.43006
0.51922
-0.00632
0.39599
0.56658
0.00143
0.36754
0.56362
0.00421
0.36716
0.56818
0.00421
0.35674
0.35910
0.00143
0.36924
0.56662
-0.00632
0.36867
0.56350
0.06263
0.39738
0.56620
0.07876
0.42885
0.51532
0.04974
0.44135
1.00871
0.02805
0.28950
0.65507
0.01639
0.15547
0.29979
0.03853
0.10181
0.00245
-0.00231
-0.05957
-0.00747
-0.04167
-0.10624
0.01302
0.02776
-0.00760
0.01218
0.02945
-0.00872
-0.03300
0.00619
-0.08551
-0.03202
0.00420
-0.08605
-0.00146
-0.00317
-0.00146
-0.00539
0.01867
0.07646
0.12136
0.01807
0.07794
0.12065
0.03416
0.21783
0.34011
0.03382
0.22105
0.33929
0.05832
0.72861
0.34892
0.05635
0.72710
0.34978
0.10372
0.43966
0.96733
0.10391
0.43900
0.96682
0.07778
0.36395
0.51591
0.07856
0.36380
0.51641
0.00261
0.36045
0.45750
0.00168
0.36470
0.45587
0.00539
0.48911
0.36647
0.00520
0.48622
0.36816
0.00764
0.35328
0.34445
0.35412
0.34333
0.01791
-0.05981
-0.05797
0.01690
-0.05892
-0.05996
0.01419
0.00334
-0.05738
0.01578
0.00433
-0.05794
0.00865
0.05917
0.02003
0.00599
0.06010
0.02007
0.01949
-0.02848
-0.06172
0.01886
-0.02716
-0.06219
-0.02012
-0.01321
-0.02017
-0.01324
0.02084
0.11115
0.15205
0.02038
0.11236
0.15155
0.03505
0.06906
0.35917
0.73908
0.03527
0.06788
0.36164
0.73835
0.25261
0.37201
0.25461
0.37408
0.12083
0.41191
1.05553
0.11859
0.41283
1.05821
0.09385
0.61925
0.33924
0.09407
0.61678
0.33956
0.00580
0.00238
0.33217
0.30834
0.00596
0.00330
0.33394
0.30703
0.33435
0.37910
0.33374
0.37793
0.32226
0.32306
0.00859
0.02260
-0.03188
0.00810
0.02576
-0.03089
-0.00016
-0.05771
-0.04149
0.00021
-0.05766
-0.03960
0.00659
0.07558
0.04958
0.00452
0.07590
0.04681
0.00656
-0.01015
-0.04004
0.00642
-0.00944
-0.04049
0.02041
0.12325
0.19005
0.01958
0.12460
0.19019
0.03619
0.25726
0.39871
0.03509
0.25926
0.39847
-0.00330
0.04188
0.27729
0.32771
-0.00447
0.04261
0.27710
0.32904
0.06779
0.33519
0.74515
0.06616
0.33696
0.74534
-0.00414
0.30865
0.24887
-0.00375
0.30861
0.24885
0.36466
1.18328
0.36348
1.18010
-0.04064
-0.01654
-0.04022
-0.01356
-0.00306
0.29061
0.27061
0.29374
0.27020
0.00354
0.03829
0.00267
0.00115
0.03959
0.00205
-0.01238
-0.04777
-0.03520
-0.01299
-0.04760
-0.03514
0.00749
0.08266
0.08927
0.00587
0.08413
0.08925
-0.00055
-0.00572
-0.02001
-0.00241
-0.00571
-0.02101
0.01689
0.12703
0.21828
0.01694
0.12708
0.21791
0.03638
0.22241
0.40805
0.03481
0.22298
0.40508
0.06254
-0.00502
0.27262
0.21831
0.06249
-0.00591
0.27437
0.21823
0.06298
0.27649
0.69097
0.06258
0.27657
0.69176
0.58897
0.32440
0.58943
0.32668
-0.00821
0.26992
0.24325
-0.00831
0.27018
0.24072
0.25655
0.25627
-0.05105
-0.01005
-0.05116
-0.01126
-0.00056
0.03354
0.03075
-0.00239
0.03511
0.03163
-0.02054
-0.04307
-0.04168
-0.02443
-0.04235
-0.04408
0.00588
0.07379
0.10840
0.00503
0.07591
0.11070
-0.01466
-0.02261
-0.00614
-0.01540
-0.02445
-0.00495
0.01475
0.10840
0.22954
0.01271
0.11096
0.22946
0.03192
0.18632
0.39471
0.03048
0.18881
0.39500
0.00489
-0.00708
0.29026
0.17975
0.00525
-0.00740
0.29090
0.17814
0.22817
0.63571
0.22856
0.63355
-0.01044
0.24667
0.19844
-0.01102
0.24600
0.19611
-0.00962
0.23438
0.21983
0.23523
0.21973
-0.06531
-0.06697
-0.00775
0.02685
0.04718
-0.00905
0.02750
0.04564
-0.04544
-0.04232
-0.04795
-0.04854
0.00642
0.06183
0.12765
0.00399
0.06311
0.12686
0.01125
0.08756
0.22633
0.00926
0.08931
0.22621
0.02914
0.14626
0.35017
0.02898
0.14701
0.35054
0.03126
0.17685
0.40070
0.03181
0.17743
0.39898
-0.02447
-0.01096
-0.00333
-0.02741
-0.01075
-0.00424
-0.01289
0.23807
0.16716