# vtk DataFile Version 3.0
Point representing Sub_cellular elem model
ASCII

DATASET UNSTRUCTURED_GRID
POINTS 3657 float
-54.40644 -3.06711 52.40762 
-54.38730 3.23626 52.44003 
-54.01447 -9.32364 52.06325 
-54.00525 9.53261 52.11942 
-51.29987 0.04361 56.12714 
-51.01236 -6.15286 55.86800 
-51.03681 6.25845 55.85510 
-51.21468 -17.22747 52.78959 
-51.11609 17.34141 52.86660 
-50.67825 -12.24143 55.34398 
-50.57383 12.39560 55.45584 
-47.62296 -3.06464 59.15059 
-47.64533 3.13259 59.14330 
-47.33608 -9.24591 58.83515 
-47.32773 9.26367 58.86303 
-47.51829 -20.22719 55.92042 
-47.45874 20.33599 55.95578 
-47.02045 -15.14329 57.93792 
-46.95589 15.18946 58.01623 
-47.94444 -24.96866 52.90523 
-47.87487 25.22547 53.12137 
-47.86387 -29.85482 49.90595 
-47.73823 30.11654 50.05893 
-44.12824 -0.00757 62.01309 
-44.03767 -6.18027 61.95910 
-44.02921 6.18211 61.98005 
-43.60667 -12.10802 61.32443 
-43.58009 12.13625 61.39504 
-43.31387 -18.04885 60.44315 
-43.27906 18.05495 60.51499 
-43.72655 -23.12456 58.17199 
-43.67370 23.20313 58.27335 
-44.15374 -28.13503 55.75186 
-44.05829 28.29818 55.86620 
-43.30715 -33.71500 53.13322 
-43.11620 33.91411 53.16936 
-40.45592 -3.06119 64.50634 
-40.42966 3.08812 64.52828 
-40.16605 -9.04605 64.21551 
-40.14710 9.02011 64.21920 
-39.72082 -14.84481 63.58594 
-39.70814 14.85596 63.62253 
-39.38772 -20.68429 62.41132 
-39.36858 20.74698 62.45795 
-39.83090 -25.78414 60.35452 
-39.74366 25.87859 60.44865 
-39.20843 -31.42102 58.17824 
-39.11765 31.50420 58.29540 
-36.90977 0.00804 66.94772 
-36.70076 -5.91381 66.68759 
-36.64131 5.91209 66.72593 
-36.24974 -11.83512 66.45324 
-36.25133 11.84660 66.47104 
-38.28740 -36.92701 55.62030 
-38.17018 37.04470 55.84135 
-35.80798 -17.61890 65.51751 
-35.82977 17.61151 65.54511 
-35.51110 -23.32603 64.28560 
-35.47063 23.33306 64.35929 
-37.38414 -41.86429 51.91208 
-37.26502 42.10893 52.16370 
-34.94829 -28.88916 62.38329 
-34.84201 28.92327 62.50519 
-34.19998 -34.52090 60.26478 
-34.09488 34.54323 60.40252 
-32.37545 -3.13925 69.21982 
-32.34381 3.09548 69.24160 
-31.98255 -9.06191 68.93765 
-31.99275 9.08296 68.97658 
-31.39700 -14.86982 68.42623 
-31.38364 14.85167 68.46040 
-33.13705 -39.87147 57.26082 
-33.05317 39.94102 57.38326 
-31.04294 -20.67912 67.36822 
-31.03638 20.62139 67.41915 
-31.39285 -25.78801 65.59361 
-31.33023 25.75297 65.68881 
-30.67027 -31.38143 63.66067 
-30.59462 31.39690 63.75065 
-32.14270 -44.94976 53.93651 
-31.84873 45.10709 54.16557 
-29.83358 -36.88428 61.23755 
-29.71327 36.93540 61.31312 
-27.73911 -0.01016 71.38966 
-27.71732 -6.27028 71.34655 
-27.69718 6.25349 71.36321 
-27.04195 -12.24685 70.82127 
-26.98709 12.19762 70.83393 
-28.69471 -42.22245 58.28896 
-28.59292 42.25552 58.40203 
-26.65839 -18.01827 70.11470 
-26.62634 17.95994 70.16598 
-26.89300 -23.11492 68.55745 
-26.85730 23.09574 68.61532 
-27.19089 -28.24172 66.82716 
-27.14792 28.25827 66.88484 
-26.33193 -33.74579 64.60411 
-26.29230 33.76986 64.69271 
-27.37900 -47.39100 54.67626 
-27.20407 47.47062 54.72524 
-25.38230 -39.25313 62.14465 
-25.28678 39.29869 62.21980 
-26.21200 -51.69184 50.01865 
-25.96735 51.88519 50.14425 
-23.03933 -3.15515 73.18924 
-22.98957 3.14120 73.17525 
-22.75452 -9.34953 72.81599 
-22.74873 9.36798 72.82239 
-22.45075 -20.34331 71.04471 
-22.44940 20.33520 71.09531 
-22.20352 -15.16874 72.19349 
-22.14387 15.18750 72.23091 
-22.70112 -25.50113 69.48293 
-22.63580 25.50382 69.51354 
-22.83611 -30.53124 67.51348 
-22.79659 30.56999 67.55164 
-23.99692 -44.58913 58.86202 
-23.88507 44.66697 58.91165 
-21.92577 -36.00280 65.22485 
-21.82817 36.04902 65.27979 
-22.65808 -49.79235 54.95972 
-22.49999 49.86410 55.04752 
-20.63189 -41.49331 62.40312 
-20.52360 41.50444 62.48778 
-21.09062 -54.16751 50.34630 
-20.82769 54.28157 50.48218 
-18.30904 -0.01188 74.86944 
-18.14305 -6.24036 74.53842 
-18.16356 6.21887 74.53566 
-18.06743 -17.57094 73.06441 
-18.00207 17.56145 73.10124 
-18.26706 -22.75288 71.87510 
-18.23985 22.74495 71.90660 
-17.92125 -12.39357 74.07205 
-17.87563 12.36031 74.09747 
-18.35535 -27.79817 70.07135 
-18.34617 27.79608 70.10471 
-18.48546 -32.79097 68.06388 
-18.44284 32.82657 68.09554 
-19.17963 -46.79378 59.00581 
-19.11098 46.80818 59.07320 
-17.23546 -38.23156 65.48478 
-17.10687 38.24350 65.54797 
-17.67091 -51.73838 54.97413 
-17.51965 51.80640 55.03543 
-15.81401 -43.66460 62.63605 
-15.72079 43.69542 62.68102 
-13.64989 -3.17605 75.78480 
-13.61653 3.15476 75.82261 
-15.95796 -56.16291 50.37391 
-15.67996 56.28124 50.52629 
-13.67338 -19.87851 73.67545 
-13.66151 19.88047 73.69035 
-13.46918 -9.42820 75.39449 
-13.47078 9.36693 75.40039 
-13.76363 -25.00989 72.18914 
-13.71836 24.97358 72.22604 
-13.47096 -14.69119 74.72188 
-13.42783 14.64607 74.74650 
-13.78447 -30.06510 70.32418 
-13.76750 30.02343 70.37220 
-14.03089 -34.84663 68.07149 
-13.95244 34.81973 68.13139 
-14.24813 -48.73915 58.99940 
-14.19486 48.77214 59.03618 
-12.58121 -40.24138 65.42289 
-12.54200 40.25739 65.41911 
-12.74342 -53.64170 54.94018 
-12.54190 53.70230 54.98132 
-11.09979 -45.51961 62.22044 
-10.95177 45.55775 62.29102 
-9.07751 -0.00218 76.65627 
-9.01659 -11.67394 75.93678 
-9.00209 11.67062 75.92408 
-9.01937 -6.34510 76.57524 
-8.97302 6.33438 76.58503 
-9.10451 -16.87888 75.21976 
-9.07872 16.87572 75.23234 
-9.21203 -22.02475 73.88458 
-9.13956 22.03197 73.90326 
-9.28803 -31.98794 70.26223 
-9.22407 32.03344 70.29465 
-9.17583 -27.18456 72.36506 
-9.13469 27.18120 72.38424 
-9.42238 -36.81544 68.03162 
-9.38342 36.87925 68.02482 
-9.95537 -57.25268 51.35666 
-9.66057 57.26987 51.33849 
-9.47409 -50.56278 58.54994 
-9.39975 50.55694 58.60310 
-7.92770 -42.09742 65.02469 
-7.83780 42.13329 65.03556 
-6.30817 -47.29707 61.87097 
-6.13687 47.35188 61.86893 
-6.51733 -54.16943 55.60288 
-6.35882 54.16287 55.64782 
-4.47384 -3.17130 77.13586 
-4.43508 3.19770 77.14179 
-4.51966 -8.56751 76.75332 
-4.49053 8.56154 76.75642 
-4.52385 -13.89207 76.10347 
-4.50119 13.86899 76.13177 
-4.59653 -18.98569 75.16891 
-4.57378 19.00740 75.16856 
-4.59492 -24.07270 73.79516 
-4.52032 24.10703 73.79239 
-4.59293 -28.98078 72.05207 
-4.57445 28.94501 72.05035 
-4.67908 -33.77949 69.92180 
-4.64748 33.79664 69.92605 
-4.76057 -38.55276 67.47436 
-4.70331 38.58933 67.46890 
-3.46394 -57.62995 52.11638 
-3.22561 57.64784 52.09683 
-3.25986 -50.87492 59.10955 
-3.13008 50.90317 59.06151 
-3.11610 -43.75780 64.44935 
-2.99679 43.77879 64.45004 
-0.07616 -54.40184 56.11335 
-0.06745 -47.43539 61.94329 
-0.03971 -40.17575 66.84433 
-0.01028 -35.43210 69.30002 
0.00986 -30.67219 71.61301 
-0.04464 -25.75516 73.38860 
-0.00649 -20.93165 74.95237 
0.00035 -15.88438 75.95505 
-0.00152 -10.72871 76.80450 
-0.03471 -5.34464 77.19279 
-0.00000 0.00000 77.46744 
0.03471 5.34464 77.19279 
0.00152 10.72871 76.80450 
-0.00035 15.88438 75.95505 
0.00649 20.93165 74.95237 
0.04464 25.75516 73.38860 
-0.00986 30.67219 71.61301 
0.01028 35.43210 69.30002 
0.03971 40.17575 66.84433 
0.06745 47.43539 61.94329 
0.07616 54.40184 56.11335 
2.99679 -43.77879 64.45004 
3.11610 43.75780 64.44935 
3.13008 -50.90317 59.06151 
3.25986 50.87492 59.10955 
3.22561 -57.64784 52.09683 
3.46394 57.62995 52.11638 
4.70331 -38.58933 67.46890 
4.76057 38.55276 67.47436 
4.64748 -33.79664 69.92605 
4.67908 33.77949 69.92180 
4.57445 -28.94501 72.05035 
4.59293 28.98078 72.05207 
4.52032 -24.10703 73.79239 
4.59492 24.07270 73.79516 
4.57378 -19.00740 75.16856 
4.59653 18.98569 75.16891 
4.50119 -13.86899 76.13177 
4.52385 13.89207 76.10347 
4.49053 -8.56154 76.75642 
4.51966 8.56751 76.75332 
4.43508 -3.19770 77.14179 
4.47384 3.17130 77.13586 
6.35882 -54.16287 55.64782 
6.51733 54.16943 55.60288 
6.13687 -47.35188 61.86893 
6.30817 47.29707 61.87097 
7.83780 -42.13329 65.03556 
7.92770 42.09742 65.02469 
9.39975 -50.55694 58.60310 
9.47409 50.56278 58.54994 
9.66057 -57.26987 51.33849 
9.95537 57.25268 51.35666 
9.38342 -36.87925 68.02482 
9.42238 36.81544 68.03162 
9.13469 -27.18120 72.38424 
9.17583 27.18456 72.36506 
9.22407 -32.03344 70.29465 
9.28803 31.98794 70.26223 
9.13956 -22.03197 73.90326 
9.21203 22.02475 73.88458 
9.07872 -16.87572 75.23234 
9.10451 16.87888 75.21976 
8.97302 -6.33438 76.58503 
9.01937 6.34510 76.57524 
9.00209 -11.67062 75.92408 
9.01659 11.67394 75.93678 
9.07751 0.00218 76.65627 
10.95177 -45.55775 62.29102 
11.09979 45.51961 62.22044 
12.54190 -53.70230 54.98132 
12.74342 53.64170 54.94018 
12.54200 -40.25739 65.41911 
12.58121 40.24138 65.42289 
14.19486 -48.77214 59.03618 
14.24813 48.73915 58.99940 
13.95244 -34.81973 68.13139 
14.03089 34.84663 68.07149 
13.76750 -30.02343 70.37220 
13.78447 30.06510 70.32418 
13.42783 -14.64607 74.74650 
13.47096 14.69119 74.72188 
13.71836 -24.97358 72.22604 
13.76363 25.00989 72.18914 
13.47078 -9.36693 75.40039 
13.46918 9.42820 75.39449 
13.66151 -19.88047 73.69035 
13.67338 19.87851 73.67545 
15.67996 -56.28124 50.52629 
15.95796 56.16291 50.37391 
13.61653 -3.15476 75.82261 
13.64989 3.17605 75.78480 
15.72079 -43.69542 62.68102 
15.81401 43.66460 62.63605 
17.51965 -51.80640 55.03543 
17.67091 51.73838 54.97413 
17.10687 -38.24350 65.54797 
17.23546 38.23156 65.48478 
19.11098 -46.80818 59.07320 
19.17963 46.79378 59.00581 
18.44284 -32.82657 68.09554 
18.48546 32.79097 68.06388 
18.34617 -27.79608 70.10471 
18.35535 27.79817 70.07135 
17.87563 -12.36031 74.09747 
17.92125 12.39357 74.07205 
18.23985 -22.74495 71.90660 
18.26706 22.75288 71.87510 
18.00207 -17.56145 73.10124 
18.06743 17.57094 73.06441 
18.16356 -6.21887 74.53566 
18.14305 6.24036 74.53842 
18.30904 0.01188 74.86944 
20.82769 -54.28157 50.48218 
21.09062 54.16751 50.34630 
20.52360 -41.50444 62.48778 
20.63189 41.49331 62.40312 
22.49999 -49.86410 55.04752 
22.65808 49.79235 54.95972 
21.82817 -36.04902 65.27979 
21.92577 36.00280 65.22485 
23.88507 -44.66697 58.91165 
23.99692 44.58913 58.86202 
22.79659 -30.56999 67.55164 
22.83611 30.53124 67.51348 
22.63580 -25.50382 69.51354 
[...]
CELL_DATA 40900
SCALARS Strain double 1
LOOKUP_TABLE default
0.01335
0.00943
-0.04839
-0.03854
0.00903
-0.04909
-0.03869
-0.06284
-0.04059
-0.06160
-0.03954
0.01594
0.01552
0.00347
0.00460
0.02194
0.00367
0.00206
0.02246
0.00307
0.00259
-0.01014
-0.07017
-0.11167
-0.01154
-0.07121
-0.11148
-0.00629
-0.00147
-0.00633
-0.00123
0.01370
0.01476
0.05022
0.04382
0.01477
0.04915
0.04474
0.01460
0.04953
0.03971
0.01409
0.04920
0.04132
0.00121
-0.02913
-0.08015
-0.01275
0.00001
-0.02609
-0.07963
-0.01423
-0.00123
0.00692
-0.00198
0.00852
-0.04000
-0.10706
-0.06025
-0.04026
-0.10642
-0.06035
-0.12835
-0.08221
-0.12840
-0.08268
0.00885
0.00982
0.07839
0.07805
0.01078
0.08051
0.06685
0.01101
0.08052
0.06666
0.01174
0.07771
0.07425
0.01109
0.07606
0.07519
-0.00891
-0.03433
0.06177
-0.01008
-0.03364
0.06198
-0.01456
-0.05766
0.02014
-0.01562
-0.05746
0.02003
-0.02009
-0.08497
-0.02268
-0.02120
-0.08395
-0.02155
-0.10551
-0.04657
-0.10508
-0.04753
0.00562
0.00740
0.10781
0.09892
0.00727
0.10769
0.09901
0.02305
0.10779
0.08639
0.02276
0.10795
0.08740
0.01909
0.06833
0.10428
0.01811
0.06786
0.10580
-0.00075
-0.01226
0.08363
-0.00054
-0.01262
0.08366
0.00268
-0.03593
0.04607
0.00232
-0.03602
0.04633
-0.00930
-0.05615
0.00659
-0.00895
-0.05545
0.00770
0.00356
0.00342
0.12881
0.12955
0.00663
0.15633
0.11604
0.00720
0.15562
0.11711
0.02305
0.15356
0.16276
0.02312
0.15435
0.16353
-0.04113
-0.08077
-0.00727
-0.04012
-0.08034
-0.00570
0.02525
0.04578
0.14578
0.02561
0.04582
0.14579
0.01520
0.02267
0.12149
0.01516
0.02247
0.12147
-0.11675
-0.04826
-0.11545
-0.04736
0.00189
-0.01551
0.07635
0.00126
-0.01509
0.07791
-0.02004
-0.03455
0.04464
-0.02082
-0.03393
0.04638
0.00218
0.00190
0.15539
0.14700
0.00270
0.15671
0.14646
0.03124
0.18639
0.12242
0.03187
0.18432
0.12186
0.03627
0.16984
0.20355
0.03685
0.16813
0.20455
-0.03176
-0.06449
0.00987
-0.02990
-0.06270
0.01048
0.01603
0.08754
0.18034
0.01568
0.08758
0.17857
0.01531
0.05153
0.12775
0.01446
0.05236
0.12774
-0.00157
0.00195
0.09036
-0.00221
0.00293
0.09023
-0.09729
-0.01438
-0.09691
-0.01363
-0.01539
-0.02116
0.04617
-0.01626
-0.02105
0.04631
0.00149
0.00142
0.17089
0.16975
0.00123
0.17797
0.15037
0.00076
0.17669
0.14949
0.03036
0.20482
0.25663
0.03121
0.20918
0.25310
-0.03544
-0.05475
0.02051
-0.03727
-0.05366
0.02253
0.03555
0.26576
0.15344
0.03474
0.26305
0.15577
0.01772
0.11876
0.19831
0.01684
0.11921
0.19814
0.01310
0.07668
0.14639
0.01112
0.07838
0.14622
-0.00335
0.02046
0.09305
-0.00383
0.02191
0.09354
-0.06955
-0.08807
-0.00118
-0.06791
-0.08814
-0.00089
-0.02014
-0.00809
0.05264
-0.02050
-0.00702
0.05342
-0.12698
-0.02039
-0.12728
-0.02100
0.00208
0.00254
0.19718
0.18530
0.00283
0.19816
0.18646
0.03417
0.20673
0.18134
0.03474
0.20612
0.18262
0.04717
0.03394
0.20293
0.27385
0.04591
0.03377
0.20252
0.27394
0.34566
0.22928
0.34729
0.22727
0.02073
0.15298
0.20663
0.01943
0.15289
0.20687
0.01057
0.09865
0.13921
0.00998
0.09894
0.13918
-0.03961
-0.04418
0.02055
-0.04046
-0.04335
0.02123
-0.00276
0.03004
0.08569
-0.00341
0.03027
0.08574
-0.06830
-0.08408
-0.00050
-0.06812
-0.08333
-0.00022
-0.01659
-0.00244
0.03657
-0.01730
-0.00178
0.03692
-0.12236
-0.01391
-0.12307
-0.01322
0.00329
0.00335
0.19285
0.19318
0.00183
0.21444
0.18636
0.00177
0.21555
0.18765
0.04679
0.03670
0.38139
0.24589
0.04651
0.03637
0.38119
0.24434
0.03710
0.23794
0.29793
0.03613
0.23812
0.29848
0.22729
0.22952
0.22658
0.22969
0.01694
0.18257
0.20711
0.01661
0.18213
0.20782
0.00801
0.11719
0.13972
0.00734
0.11678
0.13993
-0.03636
-0.04536
0.01022
-0.03660
-0.04414
0.01080
-0.00404
0.03455
0.07342
-0.00535
0.03481
0.07482
-0.06821
-0.08428
-0.00866
-0.06761
-0.08309
-0.00832
-0.01564
0.00013
0.02856
-0.01577
0.00151
0.02753
0.00209
0.00194
0.22071
0.21349
0.00198
0.22127
0.21195
-0.12537
-0.04580
-0.12572
-0.04422
0.05167
0.04007
0.25880
0.39063
0.05035
0.04043
0.25943
0.38884
0.00154
0.27121
0.23623
0.00124
0.26725
0.23913
0.03268
0.25050
0.29355
0.03261
0.25273
0.29192
0.24750
0.36854
0.24943
0.36582
0.01499
0.20716
0.18654
0.01428
0.20265
0.18894
0.00465
0.11680
0.11914
0.00358
0.11941
0.11793
-0.03392
-0.03879
-0.00332
-0.03371
-0.03847
-0.00373
-0.00386
0.03042
0.05572
-0.00400
0.03180
0.05467
-0.03267
-0.08485
-0.06502
-0.03300
-0.08382
-0.06502
-0.00801
-0.00517
0.00305
-0.00813
-0.00350
0.00260
-0.00069
-0.00016
0.22899
0.22679
-0.00124
0.04095
0.24109
0.31167
-0.00043
0.03929
0.24164
0.31332
0.23374
0.30527
0.23611
0.30426
0.06618
0.25539
0.35426
0.06558
0.25571
0.35295
0.04440
0.26853
0.36899
0.04472
0.26964
0.36654
0.02603
0.00550
0.17731
0.19355
0.02548
0.00417
0.17534
0.19468
0.24016
0.30170
0.24193
0.30386
0.00014
0.10525
0.10390
-0.00107
0.10570
0.10362
-0.11883
-0.09166
-0.11784
-0.09174
-0.04752
-0.00198
-0.06119
-0.04726
-0.00396
-0.06090
-0.00068
0.02496
0.03405
-0.00139
0.02561
0.03364
-0.00684
-0.01037
-0.03541
-0.00683
-0.00955
-0.03526
-0.01452
-0.07298
-0.09958
-0.01502
-0.07187
-0.09991
-0.00184
0.00031
0.33701
0.23798
-0.00024
0.23812
0.33700
0.00045
0.33318
0.23624
-0.00014
0.23719
0.33231
0.04270
0.34548
0.23734
0.04373
0.23891
0.34487
0.06675
0.35146
0.21795
0.06675
0.21813
0.35177
0.04063
0.38967
0.26122
0.03993
0.25937
0.39215
0.01336
0.28391
0.22025
0.01300
0.22169
0.28339
-0.00067
0.17324
0.15348
-0.00100
0.15314
0.17385
0.00048
0.07730
0.08394
0.00036
0.08411
0.07681
-0.09284
-0.11098
-0.09092
-0.11098
-0.03277
-0.02956
-0.07448
-0.02942
-0.03405
-0.07448
-0.00224
0.00890
0.00861
0.00938
-0.00334
0.00861
-0.03405
-0.09092
-0.09991
-0.00334
-0.02942
-0.03526
-0.00749
0.00938
0.07681
0.00499
0.08411
0.17385
0.02623
0.15314
0.28339
0.05902
0.22169
0.39215
0.06562
0.25937
0.35177
0.05214
0.21813
0.34487
-0.00127
0.23891
0.33231
-0.00158
0.23719
0.33700
-0.00158
0.23812
0.23798
-0.00127
0.23624
0.33701
0.05214
0.23734
0.33318
0.06562
0.21795
0.34548
0.05902
0.26122
0.35146
0.02623
0.22025
0.38967
0.00499
0.15348
0.28391
-0.00749
0.08394
0.17324
0.00890
0.07730
-0.00224
-0.02956
-0.03541
-0.03277
-0.09284
-0.09958
0.00036
-0.00955
0.03364
0.00048
-0.01037
0.03405
-0.07187
-0.00683
-0.06090
-0.07298
-0.00684
-0.06119
-0.01502
-0.09174
-0.01452
-0.09166
-0.00100
0.02561
0.10362
-0.00067
0.02496
0.10390
0.01300
0.10570
0.19468
0.01336
0.10525
0.19355
0.03993
0.30386
0.17534
0.04063
0.30170
0.17731
0.06675
0.24193
0.36654
0.06675
0.24016
0.36899
0.04373
0.26964
0.35295
0.04270
0.26853
0.35426
-0.00014
0.25571
0.31332
0.00045
0.25539
0.31167
-0.00024
0.30426
0.24164
0.00031
0.30527
0.24109
-0.00184
0.23611
0.22679
0.23374
0.22899
-0.00396
-0.11784
-0.06502
-0.00198
-0.11883
-0.06502
-0.00139
-0.04726
0.00260
-0.00068
-0.04752
0.00305
-0.00107
-0.00350
0.05467
0.00014
-0.00517
0.05572
-0.00813
-0.08382
-0.00373
-0.00801
-0.08485
-0.00332
-0.03300
-0.04422
-0.03267
-0.04580
0.00417
0.03180
0.11793
0.00550
0.03042
0.11914
0.02548
0.04472
0.18894
0.29192
0.02603
0.04440
0.18654
0.29355
0.11941
0.20265
0.11680
0.20716
0.06558
0.25273
0.38884
0.06618
0.25050
0.39063
0.03929
0.36582
0.25943
0.04095
0.36854
0.25880
-0.00043
-0.00016
0.23913
0.21195
-0.00124
-0.00069
0.23623
0.21349
0.24943
0.26725
0.24750
0.27121
0.22127
0.22071
-0.00400
-0.03847
0.02753
-0.00386
-0.03879
0.02856
-0.03371
-0.12572
-0.00832
-0.03392
-0.12537
-0.00866
0.00358
0.00151
0.07482
0.00465
0.00013
0.07342
-0.01577
-0.08309
0.01080
-0.01564
-0.08428
0.01022
0.01428
0.03481
0.13993
0.01499
0.03455
0.13972
0.03261
0.11678
0.20782
0.03268
0.11719
0.20711
0.00124
0.04043
0.22969
0.24434
0.00154
0.04007
0.22952
0.24589
0.05035
0.18213
0.29848
0.05167
0.18257
0.29793
0.00198
0.22658
0.18765
0.00194
0.22729
0.18636
0.23812
0.38119
0.23794
0.38139
-0.06761
-0.01322
-0.06821
-0.01391
0.00209
0.21555
0.19318
0.21444
0.19285
-0.00535
-0.04414
0.03692
-0.00404
-0.04536
0.03657
-0.03660
-0.12307
-0.00022
-0.03636
-0.12236
-0.00050
0.00734
-0.00178
0.08574
0.00801
-0.00244
0.08569
-0.01730
-0.08333
0.02123
-0.01659
-0.08408
0.02055
0.01661
0.03027
0.13918
0.01694
0.03004
0.13921
0.03613
0.09894
0.20687
0.03710
0.09865
0.20663
0.03637
0.00177
0.22727
0.18262
0.03670
0.00183
0.22928
0.18134
0.04651
0.15289
0.27394
0.04679
0.15298
0.27385
0.34729
0.20252
0.34566
0.20293
0.00335
0.20612
0.18646
0.00329
0.20673
0.18530
0.19816
0.19718
-0.06812
-0.02100
-0.06830
-0.02039
-0.00341
-0.04335
0.05342
-0.00276
-0.04418
0.05264
-0.04046
-0.12728
-0.00089
-0.03961
-0.12698
-0.00118
0.00998
-0.00702
0.09354
0.01057
-0.00809
0.09305
-0.02050
-0.08814
0.02253
-0.02014
-0.08807
0.02051
0.01943
0.02191
0.14622
0.02073
0.02046
0.14639
0.03377
0.07838
0.19814
0.03394
0.07668
0.19831
0.04591
0.03474
0.15577
0.25310
0.04717
0.03417
0.15344
0.25663
0.11921
0.26305
0.11876
0.26576
0.00283
0.20918
0.14949
0.00254
0.20482
0.15037
0.00208
0.17669
0.16975
0.17797
0.17089
-0.06791
-0.06955
-0.00383
-0.05366
0.04631
-0.00335
-0.05475
0.04617
-0.03727
-0.01363
-0.03544
-0.01438
0.01112
-0.02105
0.09023
0.01310
-0.02116
0.09036
0.01684
0.00293
0.12774
0.01772
0.00195
0.12775
0.03474
0.05236
0.17857
0.03555
0.05153
0.18034
0.03121
0.08758
0.20455
0.03036
0.08754
0.20355
-0.01626
-0.09691
0.01048
-0.01539
-0.09729
0.00987
0.00076
0.16813
0.12186
0.00123
0.16984
0.12242
0.00142
0.18432
0.14646
0.00149
0.18639
0.14700
0.15671
0.15539
-0.00221
-0.06270
0.04638
-0.00157
-0.06449
0.04464
-0.02990
-0.04736
-0.03176
-0.04826
0.01446
-0.03393
0.07791
0.01531
-0.03455
0.07635
0.01568
-0.01509
0.12147
0.01603
-0.01551
0.12149
0.03685
0.02247
0.14579
0.03627
0.02267
0.14578
-0.02082
-0.11545
-0.00570
-0.02004
-0.11675
-0.00727
0.03187
0.04582
0.16353
0.03124
0.04578
0.16276
0.00270
0.15435
0.11711
0.00190
0.15356
0.11604
0.00218
0.15562
0.12955
0.15633
0.12881
0.00126
-0.08034
0.00770
0.00189
-0.08077
0.00659
0.01516
-0.05545
0.04633
0.01520
-0.05615
0.04607
-0.04012
-0.04113
0.02561
-0.03602
0.08366
0.02525
-0.03593
0.08363
0.02312
-0.01262
0.10580
0.02305
-0.01226
0.10428
-0.00895
-0.04753
-0.00930
-0.04657
0.00720
0.06786
0.08740
0.00663
0.06833
0.08639
0.00342
0.10795
0.09901
0.00356
0.10779
0.09892
0.10769
0.10781
0.00232
-0.10508
-0.02155
0.00268
-0.10551
-0.02268
-0.00054
-0.08395
0.02003
-0.00075
-0.08497
0.02014
0.01811
-0.05746
0.06198
0.01909
-0.05766
0.06177
0.02276
-0.03364
0.07519
0.02305
-0.03433
0.07425
0.00727
0.07606
0.06666
0.00740
0.07771
0.06685
0.00562
0.08052
0.07805
0.08051
0.07839
-0.02120
-0.08268
-0.02009
-0.08221
-0.01562
-0.12840
-0.06035
-0.01456
-0.12835
-0.06025
-0.01008
-0.10642
-0.01423
-0.00891
-0.10706
-0.01275
0.01109
0.00852
-0.07963
0.01174
0.00692
-0.08015
0.01101
-0.00198
0.04132
0.01078
-0.00123
0.03971
0.00982
0.04920
0.04474
0.00885
0.04953
0.04382
0.04915
0.05022
-0.04026
-0.04000
-0.02609
-0.02913
0.00001
0.01409
-0.00123
-0.11148
0.00121
0.01460
-0.00147
-0.11167
-0.07121
-0.07017
0.01477
-0.00633
0.00259
0.01476
-0.00629
0.00206
0.01370
0.00307
0.00460
0.00367
0.00347
-0.01154
0.02246
-0.03954
-0.01014
0.02194
-0.04059
0.01552
-0.06160
-0.03869
0.01594
-0.06284
-0.03854
-0.04909
-0.04839
0.00903
0.00943
0.01335
0.01003
0.00747
0.01644
0.01889
0.00779
0.01683
0.01865
0.01105
0.01874
0.01088
0.01826
0.01461
0.01520
0.04541
0.04575
0.02007
0.04949
0.03807
0.02082
0.04898
0.03791
0.01398
0.01260
-0.00764
0.01513
0.01218
-0.00717
0.05702
0.04690
0.05769
0.04665
0.01303
0.01495
0.06918
0.05907
0.01497
0.06909
0.05905
0.01561
0.07769
0.05316
0.01605
0.07736
0.05273
0.02581
-0.00904
-0.02295
0.06322
0.02530
-0.00689
-0.02270
0.06138
0.07020
0.07534
0.06977
0.07550
-0.02581
-0.05441
0.01173
-0.02588
-0.05336
0.01207
-0.07457
-0.01638
-0.07384
-0.01598
0.00983
0.00934
0.07784
0.07847
0.01042
0.09008
0.07143
0.01063
0.08937
0.07208
0.02713
0.09201
0.05866
0.02744
0.09183
0.05917
0.00255
0.06443
0.12414
0.00348
0.06352
0.12285
-0.00464
-0.00088
0.09397
-0.00378
-0.00066
0.09362
-0.00995
-0.02773
0.04918
-0.00959
-0.02719
0.04816
-0.05014
0.02467
-0.04976
0.02448
0.00569
0.00605
0.09505
0.08864
0.00594
0.09481
0.08914
0.01088
0.10310
0.07482
0.01052
0.10320
0.07435
0.02594
0.10454
0.14359
0.02622
0.10457
0.14312
0.01303
0.02144
0.16242
0.01299
0.02126
0.16182
0.01384
0.02209
0.11714
0.01390
0.02229
0.11704
0.00002
0.00332
0.08002
0.00015
0.00385
0.08039
0.00305
0.00308
0.11602
0.11655
0.00516
0.13526
0.10157
0.00423
0.13478
0.10166
0.03192
0.14316
0.08421
0.03235
0.14198
0.08505
-0.02627
-0.01697
0.05440
-0.02473
-0.01637
0.05396
0.03569
0.13807
0.21223
0.03559
0.13757
0.21210
0.02672
0.07127
0.18052
0.02665
0.07095
0.18027
-0.05594
0.01144
-0.05563
0.01160
0.01471
0.02983
0.14001
0.01410
0.02993
0.14016
-0.00514
0.01493
0.10017
-0.00476
0.01485
0.10035
0.00074
0.00136
0.13610
0.12233
0.00108
0.13535
0.12232
0.00386
0.15422
0.10821
0.00368
0.15380
0.10820
0.03678
0.16241
0.22382
0.03595
0.16222
0.22414
-0.02165
-0.00886
0.06486
-0.02104
-0.00854
0.06549
0.03248
0.11491
0.25268
0.03234
0.11420
0.25341
0.02783
0.09438
0.19861
0.02762
0.09384
0.19886
0.01250
0.04900
0.14741
0.01229
0.04856
0.14751
-0.04202
0.03088
-0.04057
0.03042
-0.00196
0.03036
0.10143
-0.00244
0.03085
0.10210
0.00047
0.00033
0.14732
0.14734
-0.00025
0.16123
0.13426
-0.00022
0.16114
0.13417
0.03970
0.17532
0.11711
0.03965
0.17460
0.11739
-0.01953
0.00688
0.05814
-0.01908
0.00704
0.05788
0.04418
0.32788
0.18780
0.04338
0.32758
0.18818
0.03392
0.15269
0.26611
0.03365
0.15241
0.26593
0.02698
0.12398
0.20105
0.02664
0.12393
0.20104
0.01185
0.06351
0.14236
0.01115
0.06355
0.14293
-0.05278
-0.02561
0.03199
-0.05214
-0.02556
0.03118
-0.00194
0.04385
0.08804
-0.00253
0.04383
0.08835
-0.06755
0.00291
-0.06650
0.00233
0.00045
-0.00072
0.17350
0.16455
-0.00068
0.17349
0.16432
-0.00184
0.18681
0.15258
-0.00202
0.18690
0.15223
0.04424
0.05203
0.20049
0.36057
0.04387
0.05123
0.20079
0.35949
0.31603
0.20273
0.31524
0.20270
0.03597
0.17916
0.27247
0.03545
0.17908
0.27203
0.02486
0.14429
0.19584
0.02408
0.14450
0.19630
-0.02354
0.01843
0.05018
-0.02333
0.01896
0.05019
0.00983
0.07571
0.12564
0.00920
0.07570
0.12645
-0.05113
-0.01979
0.02455
-0.05026
-0.01993
0.02395
-0.00366
0.05264
0.07214
-0.00439
0.05332
0.07243
-0.06255
0.00160
-0.06259
0.00114
-0.00055
-0.00061
0.18260
0.18231
-0.00130
0.19834
0.17079
-0.00158
0.19863
0.17054
0.06850
0.04042
0.47422
0.22642
0.06777
0.04046
0.47442
0.22633
0.05241
0.24152
0.36604
0.05207
0.24101
0.36640
0.21124
0.21358
0.21077
0.21330
0.03531
0.21231
0.26451
0.03484
0.21214
0.26426
0.02122
0.16630
0.17804
0.02054
0.16699
0.17825
-0.02197
0.02248
0.03577
-0.02124
0.02264
0.03543
0.00663
0.07421
0.10379
0.00635
0.07475
0.10294
-0.05346
-0.01819
0.01693
-0.05321
-0.01845
0.01710
-0.00135
0.05088
0.04829
-0.00189
0.05111
0.04861
-0.00122
-0.00110
0.21147
0.19956
-0.00137
0.21172
0.19972
-0.05932
-0.00403
-0.05937
-0.00426
0.07209
0.05273
0.23469
0.43834
0.07146
0.05243
0.23283
0.43886
-0.00052
0.25016
0.22387
-0.00048
0.24994
0.22392
0.04993
0.25422
0.35689
0.04898
0.25401
0.35648
0.23735
0.39609
0.23684
0.39627
0.02916
0.25062
0.21811
0.02857
0.25166
0.21764
0.01324
0.16581
0.15795
0.01315
0.16527
0.15820
-0.01813
0.01827
0.01969
-0.01775
0.01928
0.01964
0.00505
0.07123
0.07886
0.00493
0.07071
0.07931
-0.03600
-0.02423
-0.01131
-0.03543
-0.02414
-0.01174
0.00418
0.04394
0.02790
0.00331
0.04417
0.02846
-0.00269
-0.00285
0.22072
0.22104
-0.00336
0.06061
0.23355
0.30326
-0.00353
0.06166
0.23434
0.30089
0.23041
0.30565
0.23091
0.30470
0.08730
0.25314
0.34225
0.08583
0.25504
0.34176
0.06843
0.25104
0.39518
0.06769
0.25048
0.39637
0.04036
0.01855
0.21019
0.23277
0.04008
0.01876
0.21027
0.23219
0.26043
0.34627
0.25973
0.34645
0.00744
0.15175
0.13589
0.00700
0.15219
0.13555
-0.05776
-0.01308
-0.05763
-0.01299
0.00749
0.00733
-0.01959
0.00797
0.00784
-0.01915
0.00787
0.05586
0.06180
0.00791
0.05631
0.06135
0.01348
0.02699
0.00725
0.01209
0.02777
0.00689
-0.01725
-0.02679
-0.05386
-0.01672
-0.02671
-0.05386
-0.00360
-0.00327
0.33950
0.23383
-0.00342
0.23486
0.33800
-0.00174
0.34106
0.23239
-0.00183
0.23372
0.33947
0.06512
0.35552
0.23009
0.06445
0.23114
0.35451
0.09236
0.33672
0.26949
0.09269
0.26933
0.33541
0.06188
0.40233
0.27087
0.06143
0.27008
0.40226
0.02897
0.32706
0.24672
0.02886
0.24723
0.32693
0.00674
0.21594
0.18300
0.00643
0.18274
0.21631
0.00755
0.12030
0.12198
0.00720
0.12186
0.12013
-0.03970
-0.01408
-0.04034
-0.01408
-0.00019
0.00460
-0.03408
0.00578
-0.00117
-0.03408
0.01675
0.03485
0.05675
0.03524
0.01629
0.05675
-0.00117
-0.04034
-0.05386
0.01629
0.00578
0.00689
0.00095
0.03524
0.12013
0.01631
0.12186
0.21631
0.05075
0.18274
0.32693
0.09149
0.24723
0.40226
0.06349
0.27008
0.33541
0.00023
0.26933
0.35451
-0.00201
0.23114
0.33947
-0.00229
0.23372
0.33800
-0.00229
0.23486
0.23383
-0.00201
0.23239
0.33950
0.00023
0.23009
0.34106
0.06349
0.26949
0.35552
0.09149
0.27087
0.33672
0.05075
0.24672
0.40233
0.01631
0.18300
0.32706
0.00095
0.12198
0.21594
0.03485
0.12030
0.01675
0.00460
0.00725
-0.00019
-0.03970
-0.05386
0.00720
0.02777
0.06135
0.00755
0.02699
0.06180
-0.02671
0.01209
-0.01915
-0.02679
0.01348
-0.01959
-0.01672
-0.01299
-0.01725
-0.01308
0.00643
0.05631
0.13555
0.00674
0.05586
0.13589
0.02886
0.15219
0.23219
0.02897
0.15175
0.23277
0.06143
0.34645
0.21027
0.06188
0.34627
0.21019
0.09269
0.25973
0.39637
0.09236
0.26043
0.39518
0.06445
0.25048
0.34176
0.06512
0.25104
0.34225
-0.00183
0.25504
0.30089
-0.00174
0.25314
0.30326
-0.00342
0.30470
0.23434
-0.00327
0.30565
0.23355
-0.00360
0.23091
0.22104
0.23041
0.22072
0.00784
-0.05763
-0.01174
0.00733
-0.05776
-0.01131
0.00791
0.00797
0.02846
0.00787
0.00749
0.02790
0.00700
0.04417
0.07931
0.00744
0.04394
0.07886
0.00331
-0.02414
0.01964
0.00418
-0.02423
0.01969
-0.03543
-0.00426
-0.03600
-0.00403
0.01876
0.07071
0.15820
0.01855
0.07123
0.15795
0.04008
0.06769
0.21764
0.35648
0.04036
0.06843
0.21811
0.35689
0.16527
0.25166
0.16581
0.25062
0.08583
0.25401
0.43886
0.08730
0.25422
0.43834
0.06166
0.39627
0.23283
0.06061
0.39609
0.23469
-0.00353
-0.00285
0.22392
0.19972
-0.00336
-0.00269
0.22387
0.19956
0.23684
0.24994
0.23735
0.25016
0.21172
0.21147
0.00493
0.01928
0.04861
0.00505
0.01827
0.04829
-0.01775
-0.05937
0.01710
-0.01813
-0.05932
0.01693
0.01315
0.05111
0.10294
0.01324
0.05088
0.10379
-0.00189
-0.01845
0.03543
-0.00135
-0.01819
0.03577
0.02857
0.07475
0.17825
0.02916
0.07421
0.17804
0.04898
0.16699
0.26426
0.04993
0.16630
0.26451
-0.00048
0.05243
0.21330
0.22633
-0.00052
0.05273
0.21358
0.22642
0.07146
0.21214
0.36640
0.07209
0.21231
0.36604
-0.00137
0.21077
0.17054
-0.00110
0.21124
0.17079
0.24101
0.47442
0.24152
0.47422
-0.05321
0.00114
-0.05346
0.00160
-0.00122
0.19863
0.18231
0.19834
0.18260
0.00635
0.02264
0.07243
0.00663
0.02248
0.07214
-0.02124
-0.06259
0.02395
-0.02197
-0.06255
0.02455
0.02054
0.05332
0.12645
0.02122
0.05264
0.12564
-0.00439
-0.01993
0.05019
-0.00366
-0.01979
0.05018
0.03484
0.07570
0.19630
0.03531
0.07571
0.19584
0.05207
0.14450
0.27203
0.05241
0.14429
0.27247
0.04046
-0.00158
0.20270
0.15223
0.04042
-0.00130
0.20273
0.15258
0.06777
0.17908
0.35949
0.06850
0.17916
0.36057
0.31524
0.20079
0.31603
0.20049
-0.00061
0.18690
0.16432
-0.00055
0.18681
0.16455
0.17349
0.17350
-0.05026
0.00233
-0.05113
0.00291
0.00920
0.01896
0.08835
0.00983
0.01843
0.08804
-0.02333
-0.06650
0.03118
-0.02354
-0.06755
0.03199
0.02408
0.04383
0.14293
0.02486
0.04385
0.14236
-0.00253
-0.02556
0.05788
-0.00194
-0.02561
0.05814
0.03545
0.06355
0.20104
0.03597
0.06351
0.20105
0.05123
0.12393
0.26593
0.05203
0.12398
0.26611
0.04387
-0.00202
0.18818
0.11739
0.04424
-0.00184
0.18780
0.11711
0.15241
0.32758
0.15269
0.32788
-0.00068
0.17460
0.13417
-0.00072
0.17532
0.13426
0.00045
0.16114
0.14734
0.16123
0.14732
-0.05214
-0.05278
0.01115
0.00704
0.10210
0.01185
0.00688
0.10143
-0.01908
0.03042
-0.01953
0.03088
0.02664
0.03085
0.14751
0.02698
0.03036
0.14741
0.03365
0.04856
0.19886
0.03392
0.04900
0.19861
0.04338
0.09384
0.25341
0.04418
0.09438
0.25268
0.03965
0.11420
0.22414
0.03970
0.11491
0.22382
-0.00244
-0.04057
0.06549
-0.00196
-0.04202
0.06486
-0.00022
0.16222
0.10820
-0.00025
0.16241
0.10821
0.00033
0.15380
0.12232
0.00047
0.15422
0.12233
0.13535
0.13610
0.01229
-0.00854
0.10035
0.01250
-0.00886
0.10017
-0.02104
0.01160
-0.02165
0.01144
0.02762
0.01485
0.14016
0.02783
0.01493
0.14001
0.03234
0.02993
0.18027