# vtk DataFile Version 3.0
Point representing Sub_cellular elem model
ASCII

DATASET UNSTRUCTURED_GRID
POINTS 3657 float
-53.90803 -3.05467 52.68686 
-53.88662 3.24433 52.72119 
-53.51631 -9.30851 52.33319 
-53.50590 9.54105 52.39565 
-50.77126 0.05007 56.45338 
-50.47364 -6.13559 56.18084 
-50.49906 6.25575 56.16639 
-50.76333 -17.13297 52.96333 
-50.65374 17.26118 53.04322 
-50.16611 -12.20686 55.65862 
-50.05074 12.37926 55.77780 
-47.05399 -3.05200 59.44350 
-47.07819 3.13018 59.43581 
-46.77690 -9.22139 59.13367 
-46.76606 9.24518 59.16277 
-47.06551 -20.14877 56.16408 
-46.99689 20.27127 56.19841 
-46.49115 -15.09675 58.22663 
-46.41842 15.15140 58.30899 
-47.57439 -24.80826 52.99656 
-47.49998 25.10024 53.23577 
-47.55044 -29.66402 49.88072 
-47.41252 29.95923 50.04851 
-43.55448 -0.00605 62.26907 
-43.47357 -6.16484 62.23075 
-43.46332 6.17041 62.25264 
-43.03596 -12.07419 61.59645 
-43.00561 12.10800 61.67147 
-42.79513 -18.00556 60.72929 
-42.75470 18.01516 60.80533 
-43.28345 -23.04801 58.39069 
-43.22292 23.13873 58.50063 
-43.82130 -28.02780 55.92099 
-43.71243 28.21342 56.04610 
-43.04435 -33.59735 53.22211 
-42.82767 33.82239 53.25901 
-39.88599 -3.05031 64.72283 
-39.85711 3.08247 64.74607 
-39.59257 -9.02412 64.44434 
-39.57001 8.99893 64.44733 
-39.15729 -14.79237 63.83339 
-39.14207 14.80739 63.87158 
-38.88562 -20.61987 62.65535 
-38.86255 20.69104 62.70504 
-39.41532 -25.69678 60.58076 
-39.31684 25.80384 60.68229 
-38.88007 -31.32119 58.36414 
-38.77578 31.41724 58.49207 
-36.36943 0.00991 67.13225 
-36.14816 -5.89633 66.86651 
-36.08311 5.89685 66.90674 
-35.69062 -11.80448 66.66690 
-35.69097 11.81879 66.68536 
-38.04191 -36.82062 55.76632 
-37.90905 36.95574 56.01008 
-35.27635 -17.56426 65.73620 
-35.29796 17.55809 65.76536 
-35.05111 -23.25307 64.51782 
-35.00427 23.26314 64.59706 
-37.24126 -41.69421 51.88900 
-37.10978 41.97340 52.17192 
-34.56566 -28.79400 62.59155 
-34.44578 28.83476 62.72362 
-33.90174 -34.42986 60.47014 
-33.78136 34.45786 60.62001 
-31.86340 -3.13276 69.34651 
-31.82882 3.08718 69.36951 
-31.45569 -9.03938 69.07569 
-31.46637 9.06372 69.11759 
-30.86871 -14.81698 68.59208 
-30.85300 14.79852 68.62810 
-32.92041 -39.77490 57.38711 
-32.82261 39.85436 57.52165 
-30.56685 -20.61061 67.54648 
-30.55732 20.54933 67.60080 
-30.97680 -25.69581 65.77911 
-30.90558 25.66011 65.88159 
-30.32426 -31.27926 63.84157 
-30.23760 31.29866 63.93873 
-32.04270 -44.84314 53.98446 
-31.71526 45.02406 54.23719 
-29.57363 -36.77887 61.40019 
-29.43768 36.83769 61.48154 
-27.26740 -0.01043 71.46728 
-27.25557 -6.26015 71.44216 
-27.23309 6.24311 71.45995 
-26.55375 -12.22576 70.92393 
-26.49290 12.17351 70.93639 
-28.51767 -42.12518 58.40903 
-28.40057 42.16511 58.53213 
-26.20171 -17.96969 70.24745 
-26.16539 17.90696 70.30212 
-26.47207 -23.03466 68.69697 
-26.43107 23.01481 68.75907 
-26.82514 -28.14636 66.99468 
-26.77559 28.16558 67.05686 
-26.03755 -33.63707 64.75536 
-25.98966 33.66607 64.85210 
-27.30008 -47.28958 54.71301 
-27.10086 47.38012 54.76354 
-25.16863 -39.15629 62.29909 
-25.05946 39.20882 62.38022 
-26.25179 -51.51015 49.85877 
-25.97830 51.73369 49.99695 
-22.63179 -3.15096 73.22972 
-22.57717 3.13639 73.21393 
-22.33406 -9.33567 72.86610 
-22.32677 9.35635 72.87313 
-22.06141 -20.27873 71.13427 
-22.05738 20.27068 71.18901 
-21.78730 -15.12911 72.26076 
-21.72165 15.14958 72.30068 
-22.34796 -25.41529 69.59348 
-22.27592 25.41877 69.62560 
-22.52697 -30.42785 67.63833 
-22.48159 30.47128 67.67928 
-23.86204 -44.49906 58.96064 
-23.73472 44.58624 59.01392 
-21.68824 -35.89494 65.34948 
-21.57846 35.94729 65.40817 
-22.62914 -49.72108 54.96482 
-22.44853 49.80392 55.06119 
-20.47127 -41.39653 62.50672 
-20.34813 41.41175 62.59823 
-21.15460 -54.05582 50.18144 
-20.85810 54.18883 50.33051 
-17.97653 -0.01259 74.88359 
-17.79967 -6.23415 74.54497 
-17.82031 6.21121 74.54210 
-17.73233 -17.53086 73.10449 
-17.66089 17.52085 73.14374 
-17.95378 -22.69305 71.94503 
-17.92247 22.68491 71.97889 
-17.58058 -12.37952 74.10106 
-17.52996 12.34345 74.12811 
-18.06906 -27.71390 70.15207 
-18.05670 27.71247 70.18813 
-18.24178 -32.69516 68.16992 
-18.19305 32.73480 68.20410 
-19.09808 -46.71605 59.06600 
-19.01709 46.73425 59.13925 
-17.06222 -38.13167 65.57657 
-16.91873 38.14700 65.64447 
-17.67415 -51.67218 54.94833 
-17.50051 51.74950 55.01557 
-15.70874 -43.58913 62.73073 
-15.60192 43.62477 62.77902 
-13.38405 -3.17549 75.75992 
-13.34885 3.15286 75.80065 
-16.04242 -56.08974 50.20437 
-15.73113 56.22842 50.37446 
-13.42351 -19.84491 73.69431 
-13.40804 19.84721 73.71052 
-13.20122 -9.42499 75.37781 
-13.20104 9.35861 75.38395 
-13.53141 -24.94773 72.22655 
-13.48076 24.90910 72.26570 
-13.20577 -14.68399 74.72053 
-13.15747 14.63545 74.74681 
-13.57454 -29.98482 70.37813 
-13.55371 29.94041 70.42973 
-13.85785 -34.75160 68.13638 
-13.77004 34.72415 68.20070 
-14.21356 -48.67914 59.04369 
-14.14969 48.71669 59.08363 
-12.46482 -40.15315 65.48918 
-12.41847 40.17164 65.48407 
-12.79642 -53.61425 54.92242 
-12.56816 53.68347 54.96725 
-11.05212 -45.44862 62.27337 
-10.88470 45.49302 62.35118 
-8.89653 -0.00225 76.60949 
-8.83422 -11.67702 75.90370 
-8.81626 11.67275 75.89012 
-8.83993 -6.34698 76.54297 
-8.78950 6.33522 76.55339 
-8.93278 -16.87110 75.21067 
-8.90286 16.86776 75.22426 
-9.05167 -21.98403 73.88594 
-8.97291 21.99209 73.90575 
-9.15173 -31.90675 70.29366 
-9.08112 31.95649 70.32882 
-9.02371 -27.12500 72.39142 
-8.97739 27.12141 72.41194 
-9.31162 -36.73442 68.08782 
-9.26683 36.80430 68.08060 
-10.04547 -57.22544 51.25253 
-9.71301 57.24474 51.23127 
-9.49155 -50.52208 58.57869 
-9.40423 50.51783 58.63714 
-7.87563 -42.02190 65.06933 
-7.77394 42.06238 65.08110 
-6.31037 -47.25069 61.93895 
-6.11732 47.31203 61.93669 
-6.56228 -54.14125 55.60513 
-6.38132 54.13647 55.65460 
-4.37990 -3.17184 77.08050 
-4.33790 3.20009 77.08686 
-4.42830 -8.57481 76.69984 
-4.39562 8.56815 76.70314 
-4.43303 -13.89954 76.06169 
-4.40708 13.87486 76.09212 
-4.51442 -18.97432 75.14669 
-4.48769 18.99755 75.14652 
-4.51517 -24.02580 73.79080 
-4.43373 24.06276 73.78797 
-4.51818 -28.91594 72.06077 
-4.49613 28.87730 72.05879 
-4.61527 -33.70054 69.94116 
-4.57930 33.71960 69.94575 
-4.71228 -38.47782 67.50525 
-4.64738 38.51812 67.49920 
-3.51254 -57.60798 52.08610 
-3.24215 57.62759 52.06606 
-3.27723 -50.83265 59.16552 
-3.12896 50.86329 59.11164 
-3.11045 -43.69647 64.49364 
-2.97628 43.71976 64.49440 
-0.08725 -54.38539 56.16821 
-0.07654 -47.38526 61.99405 
-0.04486 -40.11527 66.88342 
-0.01219 -35.35971 69.31714 
0.00929 -30.60672 71.62717 
-0.04805 -25.69812 73.38341 
-0.00849 -20.90751 74.93869 
-0.00084 -15.87983 75.91697 
-0.00253 -10.73873 76.75823 
-0.03735 -5.34647 77.13371 
-0.00000 0.00000 77.41694 
0.03735 5.34647 77.13371 
0.00253 10.73873 76.75823 
0.00084 15.87983 75.91697 
0.00849 20.90751 74.93869 
0.04805 25.69812 73.38341 
-0.00929 30.60672 71.62717 
0.01219 35.35971 69.31714 
0.04486 40.11527 66.88342 
0.07654 47.38526 61.99405 
0.08725 54.38539 56.16821 
2.97628 -43.71976 64.49440 
3.11045 43.69647 64.49364 
3.12896 -50.86329 59.11164 
3.27723 50.83265 59.16552 
3.24215 -57.62759 52.06606 
3.51254 57.60798 52.08610 
4.64738 -38.51812 67.49920 
4.71228 38.47782 67.50525 
4.57930 -33.71960 69.94575 
4.61527 33.70054 69.94116 
4.49613 -28.87730 72.05879 
4.51818 28.91594 72.06077 
4.43373 -24.06276 73.78797 
4.51517 24.02580 73.79080 
4.48769 -18.99755 75.14652 
4.51442 18.97432 75.14669 
4.40708 -13.87486 76.09212 
4.43303 13.89954 76.06169 
4.39562 -8.56815 76.70314 
4.42830 8.57481 76.69984 
4.33790 -3.20009 77.08686 
4.37990 3.17184 77.08050 
6.38132 -54.13647 55.65460 
6.56228 54.14125 55.60513 
6.11732 -47.31203 61.93669 
6.31037 47.25069 61.93895 
7.77394 -42.06238 65.08110 
7.87563 42.02190 65.06933 
9.40423 -50.51783 58.63714 
9.49155 50.52208 58.57869 
9.71301 -57.24474 51.23127 
10.04547 57.22544 51.25253 
9.26683 -36.80430 68.08060 
9.31162 36.73442 68.08782 
8.97739 -27.12141 72.41194 
9.02371 27.12500 72.39142 
9.08112 -31.95649 70.32882 
9.15173 31.90675 70.29366 
8.97291 -21.99209 73.90575 
9.05167 21.98403 73.88594 
8.90286 -16.86776 75.22426 
8.93278 16.87110 75.21067 
8.78950 -6.33522 76.55339 
8.83993 6.34698 76.54297 
8.81626 -11.67275 75.89012 
8.83422 11.67702 75.90370 
8.89653 0.00225 76.60949 
10.88470 -45.49302 62.35118 
11.05212 45.44862 62.27337 
12.56816 -53.68347 54.96725 
12.79642 53.61425 54.92242 
12.41847 -40.17164 65.48407 
12.46482 40.15315 65.48918 
14.14969 -48.71669 59.08363 
14.21356 48.67914 59.04369 
13.77004 -34.72415 68.20070 
13.85785 34.75160 68.13638 
13.55371 -29.94041 70.42973 
13.57454 29.98482 70.37813 
13.15747 -14.63545 74.74681 
13.20577 14.68399 74.72053 
13.48076 -24.90910 72.26570 
13.53141 24.94773 72.22655 
13.20104 -9.35861 75.38395 
13.20122 9.42499 75.37781 
13.40804 -19.84721 73.71052 
13.42351 19.84491 73.69431 
15.73113 -56.22842 50.37446 
16.04242 56.08974 50.20437 
13.34885 -3.15286 75.80065 
13.38405 3.17549 75.75992 
15.60192 -43.62477 62.77902 
15.70874 43.58913 62.73073 
17.50051 -51.74950 55.01557 
17.67415 51.67218 54.94833 
16.91873 -38.14700 65.64447 
17.06222 38.13167 65.57657 
19.01709 -46.73425 59.13925 
19.09808 46.71605 59.06600 
18.19305 -32.73480 68.20410 
18.24178 32.69516 68.16992 
18.05670 -27.71247 70.18813 
18.06906 27.71390 70.15207 
17.52996 -12.34345 74.12811 
17.58058 12.37952 74.10106 
17.92247 -22.68491 71.97889 
17.95378 22.69305 71.94503 
17.66089 -17.52085 73.14374 
17.73233 17.53086 73.10449 
17.82031 -6.21121 74.54210 
17.79967 6.23415 74.54497 
17.97653 0.01259 74.88359 
20.85810 -54.18883 50.33051 
21.15460 54.05582 50.18144 
20.34813 -41.41175 62.59823 
20.47127 41.39653 62.50672 
22.44853 -49.80392 55.06119 
22.62914 49.72108 54.96482 
21.57846 -35.94729 65.40817 
21.68824 35.89494 65.34948 
23.73472 -44.58624 59.01392 
23.86204 44.49906 58.96064 
22.48159 -30.47128 67.67928 
22.52697 30.42785 67.63833 
22.27592 -25.41877 69.62560 
[...]
CELL_DATA 40900
SCALARS Strain double 1
LOOKUP_TABLE default
0.01265
0.00880
-0.05345
-0.04269
0.00890
-0.05371
-0.04402
-0.06807
-0.04958
-0.06659
-0.04789
0.01431
0.01417
0.00591
0.00654
0.01869
0.00584
0.00303
0.01986
0.00566
0.00346
-0.01706
-0.08328
-0.12063
-0.01874
-0.08476
-0.12041
-0.00439
-0.00910
-0.00486
-0.01058
0.01124
0.01273
0.05813
0.05240
0.01204
0.05789
0.05349
0.01081
0.05943
0.04625
0.01070
0.05911
0.04849
-0.00730
-0.04195
-0.08912
-0.02489
-0.00735
-0.03716
-0.08823
-0.02657
0.00229
0.00088
0.00130
0.00143
-0.04951
-0.11599
-0.07024
-0.04953
-0.11552
-0.07173
-0.14036
-0.09386
-0.14042
-0.09504
0.00653
0.00763
0.09177
0.09226
0.00813
0.09389
0.07942
0.00858
0.09394
0.07895
0.01011
0.09368
0.08647
0.00913
0.09103
0.08688
-0.01551
-0.03758
0.06284
-0.01541
-0.03738
0.06335
-0.02304
-0.06133
0.01195
-0.02258
-0.06158
0.01260
-0.02669
-0.09013
-0.03026
-0.02672
-0.08903
-0.03002
-0.11541
-0.05956
-0.11472
-0.06157
0.00292
0.00552
0.12706
0.11634
0.00464
0.12617
0.11697
0.02025
0.12568
0.10672
0.02041
0.12677
0.10792
0.01864
0.08195
0.11976
0.01846
0.08110
0.12039
-0.00625
-0.01348
0.08706
-0.00567
-0.01387
0.08700
-0.00258
-0.03688
0.04583
-0.00296
-0.03720
0.04593
-0.01639
-0.06007
0.00098
-0.01565
-0.05903
0.00170
0.00110
0.00071
0.14994
0.15137
0.00428
0.18316
0.13867
0.00487
0.18175
0.13921
0.02199
0.17687
0.19990
0.02168
0.17808
0.20094
-0.05264
-0.09011
-0.01866
-0.05015
-0.08964
-0.01804
0.02308
0.05293
0.16789
0.02378
0.05352
0.16814
0.01152
0.02950
0.13465
0.01203
0.02896
0.13481
-0.12636
-0.05836
-0.12565
-0.05680
-0.00141
-0.01416
0.08038
-0.00222
-0.01392
0.08134
-0.02422
-0.03564
0.04039
-0.02441
-0.03551
0.04289
-0.00019
-0.00072
0.18379
0.17574
0.00090
0.18417
0.17503
0.03180
0.21930
0.14827
0.03201
0.21674
0.14773
0.03907
0.19908
0.24631
0.03899
0.19759
0.24763
-0.04118
-0.07059
-0.00111
-0.03769
-0.06870
-0.00055
0.01397
0.10240
0.21012
0.01377
0.10280
0.20913
0.01335
0.06348
0.14145
0.01335
0.06362
0.14139
-0.00484
0.00550
0.09363
-0.00472
0.00583
0.09270
-0.10650
-0.02472
-0.10744
-0.02660
-0.01880
-0.02122
0.04118
-0.01997
-0.02184
0.04078
-0.00019
-0.00020
0.20113
0.20044
-0.00016
0.20803
0.17872
-0.00097
0.20631
0.17756
0.02914
0.23643
0.31854
0.02945
0.24009
0.31505
-0.04301
-0.06063
0.01158
-0.04355
-0.05994
0.01418
0.03662
0.32354
0.18014
0.03636
0.31959
0.18310
0.01643
0.14111
0.22866
0.01611
0.14084
0.22953
0.01211
0.09251
0.16436
0.01021
0.09440
0.16430
-0.00491
0.02686
0.09527
-0.00487
0.02785
0.09738
-0.08266
-0.09918
-0.01163
-0.08018
-0.09975
-0.01180
-0.02215
-0.00654
0.04857
-0.02199
-0.00556
0.04943
-0.13909
-0.02293
-0.13985
-0.02425
0.00065
0.00099
0.23517
0.22048
0.00169
0.23549
0.22080
0.03856
0.24176
0.21343
0.03930
0.24022
0.21599
0.05136
0.03583
0.24047
0.32976
0.04941
0.03612
0.24115
0.33078
0.43443
0.26831
0.43674
0.26516
0.02096
0.18306
0.24088
0.02019
0.18223
0.23957
0.00979
0.11783
0.15148
0.00948
0.11766
0.15158
-0.04292
-0.05054
0.01002
-0.04366
-0.04899
0.00951
-0.00266
0.03700
0.08570
-0.00373
0.03642
0.08624
-0.07874
-0.09387
-0.01018
-0.07777
-0.09349
-0.00992
-0.01671
-0.00185
0.02745
-0.01744
-0.00112
0.02788
-0.13569
-0.01783
-0.13735
-0.01712
0.00230
0.00236
0.22726
0.22914
0.00028
0.25241
0.21982
0.00004
0.25554
0.22191
0.05101
0.03983
0.47912
0.29296
0.05076
0.03983
0.47651
0.29008
0.04043
0.28358
0.36270
0.03954
0.28326
0.36422
0.26565
0.26855
0.26299
0.26877
0.01724
0.21814
0.23899
0.01740
0.21829
0.24003
0.00827
0.13946
0.15162
0.00755
0.13880
0.15258
-0.03954
-0.05145
-0.00225
-0.03877
-0.05035
-0.00171
-0.00305
0.04114
0.07096
-0.00406
0.04103
0.07112
-0.07680
-0.09600
-0.02129
-0.07556
-0.09550
-0.02015
-0.01429
0.00137
0.01715
-0.01451
0.00228
0.01706
0.00172
0.00144
0.26002
0.25344
0.00090
0.25903
0.25202
-0.14013
-0.05484
-0.14158
-0.05332
0.05650
0.04184
0.31018
0.48894
0.05449
0.04298
0.31088
0.48938
0.00058
0.32268
0.27890
0.00052
0.31828
0.28361
0.03553
0.29963
0.35611
0.03523
0.30272
0.35401
0.29054
0.44692
0.29113
0.44258
0.01644
0.23781
0.22409
0.01574
0.23401
0.22686
0.00489
0.13837
0.12684
0.00470
0.14020
0.12523
-0.03486
-0.04598
-0.01930
-0.03358
-0.04487
-0.01971
-0.00238
0.03544
0.04749
-0.00232
0.03623
0.04744
-0.03592
-0.09719
-0.08162
-0.03511
-0.09625
-0.08237
-0.00463
-0.00690
-0.01371
-0.00540
-0.00604
-0.01327
-0.00043
-0.00001
0.27041
0.26957
-0.00091
0.04776
0.28237
0.36993
-0.00001
0.04598
0.28350
0.37290
0.27458
0.36430
0.27686
0.36252
0.07594
0.30271
0.43467
0.07547
0.30285
0.43305
0.04868
0.32276
0.46723
0.04877
0.32216
0.46441
0.02920
0.00646
0.21103
0.22037
0.02905
0.00579
0.20765
0.22099
0.28836
0.36841
0.29118
0.37064
0.00091
0.12144
0.10889
-0.00045
0.12190
0.10902
-0.13360
-0.10558
-0.13281
-0.10638
-0.05438
-0.00078
-0.08077
-0.05454
-0.00188
-0.07950
0.00133
0.02826
0.02417
0.00117
0.02842
0.02426
-0.00883
-0.01246
-0.05078
-0.00901
-0.01156
-0.05114
-0.01442
-0.08232
-0.11972
-0.01350
-0.08242
-0.12010
-0.00137
0.00157
0.40190
0.27682
0.00055
0.27521
0.40380
0.00026
0.40184
0.27520
-0.00053
0.27747
0.39956
0.04820
0.41613
0.27853
0.05015
0.27960
0.41482
0.07352
0.43389
0.25566
0.07379
0.25525
0.43458
0.04556
0.49360
0.31746
0.04401
0.31329
0.49812
0.01499
0.34239
0.26266
0.01526
0.26616
0.34027
0.00095
0.19652
0.17936
0.00094
0.17793
0.19698
0.00090
0.07872
0.09332
0.00077
0.09305
0.07858
-0.10384
-0.12636
-0.10216
-0.12636
-0.03746
-0.03632
-0.09410
-0.03540
-0.03944
-0.09410
-0.00481
0.00869
-0.00028
0.00899
-0.00599
-0.00028
-0.03944
-0.10216
-0.12010
-0.00599
-0.03540
-0.05114
-0.00627
0.00899
0.07858
0.00734
0.09305
0.19698
0.02992
0.17793
0.34027
0.06636
0.26616
0.49812
0.07710
0.31329
0.43458
0.06284
0.25525
0.41482
0.00008
0.27960
0.39956
-0.00115
0.27747
0.40380
-0.00115
0.27521
0.27682
0.00008
0.27520
0.40190
0.06284
0.27853
0.40184
0.07710
0.25566
0.41613
0.06636
0.31746
0.43389
0.02992
0.26266
0.49360
0.00734
0.17936
0.34239
-0.00627
0.09332
0.19652
0.00869
0.07872
-0.00481
-0.03632
-0.05078
-0.03746
-0.10384
-0.11972
0.00077
-0.01156
0.02426
0.00090
-0.01246
0.02417
-0.08242
-0.00901
-0.07950
-0.08232
-0.00883
-0.08077
-0.01350
-0.10638
-0.01442
-0.10558
0.00094
0.02842
0.10902
0.00095
0.02826
0.10889
0.01526
0.12190
0.22099
0.01499
0.12144
0.22037
0.04401
0.37064
0.20765
0.04556
0.36841
0.21103
0.07379
0.29118
0.46441
0.07352
0.28836
0.46723
0.05015
0.32216
0.43305
0.04820
0.32276
0.43467
-0.00053
0.30285
0.37290
0.00026
0.30271
0.36993
0.00055
0.36252
0.28350
0.00157
0.36430
0.28237
-0.00137
0.27686
0.26957
0.27458
0.27041
-0.00188
-0.13281
-0.08237
-0.00078
-0.13360
-0.08162
0.00117
-0.05454
-0.01327
0.00133
-0.05438
-0.01371
-0.00045
-0.00604
0.04744
0.00091
-0.00690
0.04749
-0.00540
-0.09625
-0.01971
-0.00463
-0.09719
-0.01930
-0.03511
-0.05332
-0.03592
-0.05484
0.00579
0.03623
0.12523
0.00646
0.03544
0.12684
0.02905
0.04877
0.22686
0.35401
0.02920
0.04868
0.22409
0.35611
0.14020
0.23401
0.13837
0.23781
0.07547
0.30272
0.48938
0.07594
0.29963
0.48894
0.04598
0.44258
0.31088
0.04776
0.44692
0.31018
-0.00001
-0.00001
0.28361
0.25202
-0.00091
-0.00043
0.27890
0.25344
0.29113
0.31828
0.29054
0.32268
0.25903
0.26002
-0.00232
-0.04487
0.01706
-0.00238
-0.04598
0.01715
-0.03358
-0.14158
-0.02015
-0.03486
-0.14013
-0.02129
0.00470
0.00228
0.07112
0.00489
0.00137
0.07096
-0.01451
-0.09550
-0.00171
-0.01429
-0.09600
-0.00225
0.01574
0.04103
0.15258
0.01644
0.04114
0.15162
0.03523
0.13880
0.24003
0.03553
0.13946
0.23899
0.00052
0.04298
0.26877
0.29008
0.00058
0.04184
0.26855
0.29296
0.05449
0.21829
0.36422
0.05650
0.21814
0.36270
0.00090
0.26299
0.22191
0.00144
0.26565
0.21982
0.28326
0.47651
0.28358
0.47912
-0.07556
-0.01712
-0.07680
-0.01783
0.00172
0.25554
0.22914
0.25241
0.22726
-0.00406
-0.05035
0.02788
-0.00305
-0.05145
0.02745
-0.03877
-0.13735
-0.00992
-0.03954
-0.13569
-0.01018
0.00755
-0.00112
0.08624
0.00827
-0.00185
0.08570
-0.01744
-0.09349
0.00951
-0.01671
-0.09387
0.01002
0.01740
0.03642
0.15158
0.01724
0.03700
0.15148
0.03954
0.11766
0.23957
0.04043
0.11783
0.24088
0.03983
0.00004
0.26516
0.21599
0.03983
0.00028
0.26831
0.21343
0.05076
0.18223
0.33078
0.05101
0.18306
0.32976
0.43674
0.24115
0.43443
0.24047
0.00236
0.24022
0.22080
0.00230
0.24176
0.22048
0.23549
0.23517
-0.07777
-0.02425
-0.07874
-0.02293
-0.00373
-0.04899
0.04943
-0.00266
-0.05054
0.04857
-0.04366
-0.13985
-0.01180
-0.04292
-0.13909
-0.01163
0.00948
-0.00556
0.09738
0.00979
-0.00654
0.09527
-0.02199
-0.09975
0.01418
-0.02215
-0.09918
0.01158
0.02019
0.02785
0.16430
0.02096
0.02686
0.16436
0.03612
0.09440
0.22953
0.03583
0.09251
0.22866
0.04941
0.03930
0.18310
0.31505
0.05136
0.03856
0.18014
0.31854
0.14084
0.31959
0.14111
0.32354
0.00169
0.24009
0.17756
0.00099
0.23643
0.17872
0.00065
0.20631
0.20044
0.20803
0.20113
-0.08018
-0.08266
-0.00487
-0.05994
0.04078
-0.00491
-0.06063
0.04118
-0.04355
-0.02660
-0.04301
-0.02472
0.01021
-0.02184
0.09270
0.01211
-0.02122
0.09363
0.01611
0.00583
0.14139
0.01643
0.00550
0.14145
0.03636
0.06362
0.20913
0.03662
0.06348
0.21012
0.02945
0.10280
0.24763
0.02914
0.10240
0.24631
-0.01997
-0.10744
-0.00055
-0.01880
-0.10650
-0.00111
-0.00097
0.19759
0.14773
-0.00016
0.19908
0.14827
-0.00020
0.21674
0.17503
-0.00019
0.21930
0.17574
0.18417
0.18379
-0.00472
-0.06870
0.04289
-0.00484
-0.07059
0.04039
-0.03769
-0.05680
-0.04118
-0.05836
0.01335
-0.03551
0.08134
0.01335
-0.03564
0.08038
0.01377
-0.01392
0.13481
0.01397
-0.01416
0.13465
0.03899
0.02896
0.16814
0.03907
0.02950
0.16789
-0.02441
-0.12565
-0.01804
-0.02422
-0.12636
-0.01866
0.03201
0.05352
0.20094
0.03180
0.05293
0.19990
0.00090
0.17808
0.13921
-0.00072
0.17687
0.13867
-0.00019
0.18175
0.15137
0.18316
0.14994
-0.00222
-0.08964
0.00170
-0.00141
-0.09011
0.00098
0.01203
-0.05903
0.04593
0.01152
-0.06007
0.04583
-0.05015
-0.05264
0.02378
-0.03720
0.08700
0.02308
-0.03688
0.08706
0.02168
-0.01387
0.12039
0.02199
-0.01348
0.11976
-0.01565
-0.06157
-0.01639
-0.05956
0.00487
0.08110
0.10792
0.00428
0.08195
0.10672
0.00071
0.12677
0.11697
0.00110
0.12568
0.11634
0.12617
0.12706
-0.00296
-0.11472
-0.03002
-0.00258
-0.11541
-0.03026
-0.00567
-0.08903
0.01260
-0.00625
-0.09013
0.01195
0.01846
-0.06158
0.06335
0.01864
-0.06133
0.06284
0.02041
-0.03738
0.08688
0.02025
-0.03758
0.08647
0.00464
0.09103
0.07895
0.00552
0.09368
0.07942
0.00292
0.09394
0.09226
0.09389
0.09177
-0.02672
-0.09504
-0.02669
-0.09386
-0.02258
-0.14042
-0.07173
-0.02304
-0.14036
-0.07024
-0.01541
-0.11552
-0.02657
-0.01551
-0.11599
-0.02489
0.00913
0.00143
-0.08823
0.01011
0.00088
-0.08912
0.00858
0.00130
0.04849
0.00813
0.00229
0.04625
0.00763
0.05911
0.05349
0.00653
0.05943
0.05240
0.05789
0.05813
-0.04953
-0.04951
-0.03716
-0.04195
-0.00735
0.01070
-0.01058
-0.12041
-0.00730
0.01081
-0.00910
-0.12063
-0.08476
-0.08328
0.01204
-0.00486
0.00346
0.01273
-0.00439
0.00303
0.01124
0.00566
0.00654
0.00584
0.00591
-0.01874
0.01986
-0.04789
-0.01706
0.01869
-0.04958
0.01417
-0.06659
-0.04402
0.01431
-0.06807
-0.04269
-0.05371
-0.05345
0.00890
0.00880
0.01265
0.00994
0.00789
0.02046
0.02208
0.00815
0.02094
0.02192
0.01560
0.02030
0.01519
0.01953
0.01331
0.01374
0.05386
0.05401
0.01784
0.05833
0.04557
0.01819
0.05794
0.04554
0.01037
0.00777
-0.00252
0.01098
0.00792
-0.00193
0.06550
0.05070
0.06611
0.05078
0.01165
0.01312
0.08109
0.06992
0.01314
0.08095
0.06991
0.01385
0.09015
0.06249
0.01411
0.08960
0.06203
0.02084
-0.01824
-0.02567
0.06561
0.02094
-0.01630
-0.02529
0.06405
0.08510
0.08937
0.08428
0.08922
-0.03190
-0.05876
0.00995
-0.03233
-0.05757
0.01108
-0.08284
-0.02153
-0.08216
-0.02038
0.00840
0.00778
0.09105
0.09173
0.00872
0.10455
0.08427
0.00887
0.10372
0.08516
0.02516
0.10804
0.07131
0.02588
0.10766
0.07180
-0.00106
0.07847
0.14390
-0.00005
0.07754
0.14254
-0.01110
0.00320
0.10311
-0.01011
0.00350
0.10314
-0.01449
-0.02642
0.05173
-0.01429
-0.02593
0.05126
-0.05323
0.02060
-0.05302
0.02051
0.00437
0.00434
0.11022
0.10392
0.00430
0.10986
0.10464
0.00908
0.11955
0.08886
0.00884
0.11941
0.08844
0.02387
0.12148
0.17593
0.02411
0.12126
0.17571
0.00848
0.02881
0.18980
0.00881
0.02854
0.18958
0.00883
0.03188
0.13355
0.00912
0.03202
0.13389
-0.00761
0.00953
0.08905
-0.00719
0.00990
0.08948
0.00150
0.00165
0.13505
0.13586
0.00323
0.15721
0.11894
0.00252
0.15650
0.11910
0.03251
0.16591
0.09987
0.03285
0.16459
0.10077
-0.03590
-0.01815
0.05241
-0.03485
-0.01753
0.05178
0.03527
0.16640
0.25883
0.03538
0.16548
0.25887
0.02401
0.08799
0.21254
0.02395
0.08760
0.21251
-0.06014
0.00873
-0.05973
0.00858
0.01022
0.04073
0.16012
0.01019
0.04054
0.16046
-0.00963
0.02160
0.10841
-0.00925
0.02160
0.10837
-0.00063
-0.00007
0.15839
0.14284
-0.00042
0.15739
0.14277
0.00248
0.17880
0.12646
0.00231
0.17802
0.12657
0.03490
0.18692
0.27656
0.03417
0.18646
0.27721
-0.02856
-0.00562
0.06498
-0.02866
-0.00504
0.06622
0.03084
0.13967
0.30622
0.03079
0.13863
0.30715
0.02544
0.11638
0.23438
0.02544
0.11554
0.23488
0.00986
0.06320
0.16750
0.00979
0.06239
0.16794
-0.04422
0.02467
-0.04266
0.02533
-0.00670
0.04072
0.10936
-0.00678
0.04114
0.11063
-0.00064
-0.00081
0.17220
0.17237
-0.00172
0.18798
0.15654
-0.00152
0.18761
0.15680
0.04373
0.20239
0.13669
0.04360
0.20127
0.13726
-0.02738
0.01193
0.05814
-0.02659
0.01201
0.05787
0.04559
0.41044
0.22480
0.04481
0.41067
0.22497
0.03367
0.18477
0.32291
0.03369
0.18425
0.32269
0.02571
0.15174
0.23540
0.02568
0.15125
0.23548
0.00968
0.08039
0.15969
0.00924
0.08003
0.16008
-0.06487
-0.02966
0.02605
-0.06402
-0.02914
0.02588
-0.00453
0.05596
0.09310
-0.00507
0.05569
0.09336
-0.07514
0.00244
-0.07386
0.00207
-0.00024
-0.00168
0.20285
0.19249
-0.00162
0.20277
0.19263
-0.00229
0.21780
0.17765
-0.00244
0.21766
0.17744
0.04432
0.05430
0.24268
0.44964
0.04385
0.05366
0.24254
0.44834
0.38943
0.23309
0.38869
0.23257
0.03677
0.21676
0.32932
0.03644
0.21641
0.32931
0.02430
0.17646
0.22833
0.02368
0.17639
0.22911
-0.02798
0.02410
0.04769
-0.02731
0.02462
0.04802
0.00911
0.09489
0.13901
0.00866
0.09472
0.14008
-0.06001
-0.02166
0.02011
-0.05928
-0.02154
0.01953
-0.00416
0.06601
0.07308
-0.00469
0.06655
0.07371
-0.07083
0.00067
-0.07071
-0.00021
-0.00100
-0.00096
0.21350
0.21334
-0.00146
0.23210
0.19908
-0.00172
0.23186
0.19903
0.07517
0.04775
0.60054
0.26687
0.07449
0.04779
0.60161
0.26622
0.05587
0.28913
0.45697
0.05568
0.28841
0.45736
0.24634
0.24771
0.24547
0.24756
0.03723
0.25812
0.31866
0.03679
0.25735
0.31847
0.02132
0.20340
0.20500
0.02084
0.20380
0.20522
-0.02446
0.02900
0.03068
-0.02370
0.02906
0.03054
0.00686
0.09265
0.11085
0.00691
0.09294
0.11042
-0.06060
-0.02019
0.01222
-0.06062
-0.02035
0.01230
-0.00015
0.06283
0.04451
-0.00074
0.06309
0.04466
-0.00097
-0.00082
0.24732
0.23319
-0.00109
0.24747
0.23370
-0.06874
-0.00502
-0.06866
-0.00518
0.07974
0.05831
0.27849
0.55753
0.07930
0.05780
0.27630
0.55760
-0.00027
0.29323
0.26096
-0.00015
0.29324
0.26057
0.05412
0.30686
0.44771
0.05325
0.30618
0.44728
0.27502
0.47732
0.27428
0.47848
0.03186
0.30091
0.26602
0.03136
0.30204
0.26484
0.01363
0.20161
0.17918
0.01377
0.20067
0.17969
-0.01892
0.02261
0.01189
-0.01878
0.02344
0.01206
0.00660
0.08789
0.08193
0.00648
0.08704
0.08246
-0.03976
-0.02872
-0.01935
-0.03945
-0.02868
-0.01928
0.00707
0.05357
0.02070
0.00623
0.05378
0.02148
-0.00156
-0.00183
0.25635
0.25701
-0.00183
0.07315
0.27156
0.35633
-0.00201
0.07413
0.27205
0.35377
0.26752
0.36098
0.26782
0.36034
0.10178
0.30063
0.41376
0.10054
0.30192
0.41322
0.07727
0.30066
0.50502
0.07668
0.29984
0.50688
0.04494
0.02140
0.25556
0.27821
0.04462
0.02163
0.25539
0.27773
0.31681
0.43566
0.31561
0.43627
0.00828
0.18242
0.15246
0.00808
0.18249
0.15222
-0.06702
-0.01379
-0.06690
-0.01336
0.00885
0.00971
-0.03067
0.00936
0.01013
-0.03017
0.01055
0.06735
0.06138
0.01034
0.06757
0.06119
0.01494
0.03197
-0.00007
0.01365
0.03257
-0.00012
-0.01827
-0.03128
-0.06737
-0.01787
-0.03135
-0.06699
-0.00202
-0.00193
0.40203
0.26883
-0.00205
0.26957
0.40052
-0.00062
0.40464
0.26859
-0.00058
0.26962
0.40280
0.07573
0.42306
0.26632
0.07494
0.26694
0.42216
0.10670
0.40926
0.31994
0.10698
0.31956
0.40844
0.06975
0.52048
0.32737
0.06951
0.32683
0.52037
0.03329
0.41036
0.30140
0.03318
0.30145
0.41070
0.00901
0.25751
0.21944
0.00875
0.21901
0.25816
0.00918
0.13515
0.14291
0.00896
0.14251
0.13526
-0.04582
-0.01385
-0.04653
-0.01385
-0.00121
0.00483
-0.04674
0.00584
-0.00170
-0.04674
0.01793
0.04059
0.05962
0.04081
0.01752
0.05962
-0.00170
-0.04653
-0.06699
0.01752
0.00584
-0.00012
0.00291
0.04081
0.13526
0.01974
0.14251
0.25816
0.05770
0.21901
0.41070
0.10299
0.30145
0.52037
0.07245
0.32683
0.40844
0.00052
0.31956
0.42216
-0.00109
0.26694
0.40280
-0.00129
0.26962
0.40052
-0.00129
0.26957
0.26883
-0.00109
0.26859
0.40203
0.00052
0.26632
0.40464
0.07245
0.31994
0.42306
0.10299
0.32737
0.40926
0.05770
0.30140
0.52048
0.01974
0.21944
0.41036
0.00291
0.14291
0.25751
0.04059
0.13515
0.01793
0.00483
-0.00007
-0.00121
-0.04582
-0.06737
0.00896
0.03257
0.06119
0.00918
0.03197
0.06138
-0.03135
0.01365
-0.03017
-0.03128
0.01494
-0.03067
-0.01787
-0.01336
-0.01827
-0.01379
0.00875
0.06757
0.15222
0.00901
0.06735
0.15246
0.03318
0.18249
0.27773
0.03329
0.18242
0.27821
0.06951
0.43627
0.25539
0.06975
0.43566
0.25556
0.10698
0.31561
0.50688
0.10670
0.31681
0.50502
0.07494
0.29984
0.41322
0.07573
0.30066
0.41376
-0.00058
0.30192
0.35377
-0.00062
0.30063
0.35633
-0.00205
0.36034
0.27205
-0.00193
0.36098
0.27156
-0.00202
0.26782
0.25701
0.26752
0.25635
0.01013
-0.06690
-0.01928
0.00971
-0.06702
-0.01935
0.01034
0.00936
0.02148
0.01055
0.00885
0.02070
0.00808
0.05378
0.08246
0.00828
0.05357
0.08193
0.00623
-0.02868
0.01206
0.00707
-0.02872
0.01189
-0.03945
-0.00518
-0.03976
-0.00502
0.02163
0.08704
0.17969
0.02140
0.08789
0.17918
0.04462
0.07668
0.26484
0.44728
0.04494
0.07727
0.26602
0.44771
0.20067
0.30204
0.20161
0.30091
0.10054
0.30618
0.55760
0.10178
0.30686
0.55753
0.07413
0.47848
0.27630
0.07315
0.47732
0.27849
-0.00201
-0.00183
0.26057
0.23370
-0.00183
-0.00156
0.26096
0.23319
0.27428
0.29324
0.27502
0.29323
0.24747
0.24732
0.00648
0.02344
0.04466
0.00660
0.02261
0.04451
-0.01878
-0.06866
0.01230
-0.01892
-0.06874
0.01222
0.01377
0.06309
0.11042
0.01363
0.06283
0.11085
-0.00074
-0.02035
0.03054
-0.00015
-0.02019
0.03068
0.03136
0.09294
0.20522
0.03186
0.09265
0.20500
0.05325
0.20380
0.31847
0.05412
0.20340
0.31866
-0.00015
0.05780
0.24756
0.26622
-0.00027
0.05831
0.24771
0.26687
0.07930
0.25735
0.45736
0.07974
0.25812
0.45697
-0.00109
0.24547
0.19903
-0.00082
0.24634
0.19908
0.28841
0.60161
0.28913
0.60054
-0.06062
-0.00021
-0.06060
0.00067
-0.00097
0.23186
0.21334
0.23210
0.21350
0.00691
0.02906
0.07371
0.00686
0.02900
0.07308
-0.02370
-0.07071
0.01953
-0.02446
-0.07083
0.02011
0.02084
0.06655
0.14008
0.02132
0.06601
0.13901
-0.00469
-0.02154
0.04802
-0.00416
-0.02166
0.04769
0.03679
0.09472
0.22911
0.03723
0.09489
0.22833
0.05568
0.17639
0.32931
0.05587
0.17646
0.32932
0.04779
-0.00172
0.23257
0.17744
0.04775
-0.00146
0.23309
0.17765
0.07449
0.21641
0.44834
0.07517
0.21676
0.44964
0.38869
0.24254
0.38943
0.24268
-0.00096
0.21766
0.19263
-0.00100
0.21780
0.19249
0.20277
0.20285
-0.05928
0.00207
-0.06001
0.00244
0.00866
0.02462
0.09336
0.00911
0.02410
0.09310
-0.02731
-0.07386
0.02588
-0.02798
-0.07514
0.02605
0.02368
0.05569
0.16008
0.02430
0.05596
0.15969
-0.00507
-0.02914
0.05787
-0.00453
-0.02966
0.05814
0.03644
0.08003
0.23548
0.03677
0.08039
0.23540
0.05366
0.15125
0.32269
0.05430
0.15174
0.32291
0.04385
-0.00244
0.22497
0.13726
0.04432
-0.00229
0.22480
0.13669
0.18425
0.41067
0.18477
0.41044
-0.00162
0.20127
0.15680
-0.00168
0.20239
0.15654
-0.00024
0.18761
0.17237
0.18798
0.17220
-0.06402
-0.06487
0.00924
0.01201
0.11063
0.00968
0.01193
0.10936
-0.02659
0.02533
-0.02738
0.02467
0.02568
0.04114
0.16794
0.02571
0.04072
0.16750
0.03369
0.06239
0.23488
0.03367
0.06320
0.23438
0.04481
0.11554
0.30715
0.04559
0.11638
0.30622
0.04360
0.13863
0.27721
0.04373
0.13967
0.27656
-0.00678
-0.04266
0.06622
-0.00670
-0.04422
0.06498
-0.00152
0.18646
0.12657
-0.00172
0.18692
0.12646
-0.00081
0.17802
0.14277
-0.00064
0.17880
0.14284
0.15739
0.15839
0.00979
-0.00504
0.10837
0.00986
-0.00562
0.10841
-0.02866
0.00858
-0.02856
0.00873
0.02544
0.02160
0.16046
0.02544