# vtk DataFile Version 3.0
Point representing Sub_cellular elem model
ASCII

DATASET UNSTRUCTURED_GRID
POINTS 3657 float
-52.71653 -3.02627 53.32196 
-52.68980 3.26354 53.36158 
-52.32263 -9.27499 52.94624 
-52.31000 9.56240 53.02722 
-49.51005 0.06414 57.19906 
-49.18791 -6.09546 56.89412 
-49.21585 6.24783 56.87816 
-49.67803 -16.89065 53.34971 
-49.54453 17.05138 53.44372 
-48.94154 -12.12618 56.37796 
-48.80074 12.33926 56.51865 
-45.69905 -3.02271 60.11118 
-45.72796 3.12224 60.10371 
-45.44424 -9.16291 59.81511 
-45.42741 9.19784 59.85001 
-45.98873 -19.95304 56.71856 
-45.89827 20.10602 56.75749 
-45.22675 -14.98440 58.88569 
-45.13462 15.05601 58.98218 
-46.68507 -24.38559 53.18507 
-46.60310 24.77199 53.49173 
-46.78928 -29.16178 49.79826 
-46.62476 29.54580 50.01389 
-42.18931 -0.00381 62.85278 
-42.12991 -6.12819 62.85045 
-42.11496 6.13941 62.87643 
-41.67665 -11.99340 62.21647 
-41.63619 12.03666 62.30532 
-41.55878 -17.90158 61.38246 
-41.50456 17.91489 61.47442 
-42.22976 -22.85381 58.88214 
-42.15087 22.97288 59.02171 
-43.03850 -27.74539 56.29473 
-42.89544 27.98943 56.45690 
-42.42764 -33.28374 53.40607 
-42.14607 33.57723 53.45639 
-38.53121 -3.02544 65.21645 
-38.49546 3.06703 65.24365 
-38.22884 -8.97200 64.96584 
-38.19713 8.94562 64.97002 
-37.81631 -14.66798 64.39638 
-37.79399 14.68909 64.44277 
-37.69074 -20.46409 63.20884 
-37.65713 20.55298 63.27254 
-38.43239 -25.47779 61.09184 
-38.30481 25.61469 61.21972 
-38.11004 -31.06479 58.77893 
-37.97041 31.19284 58.94329 
-35.08399 0.01295 67.55281 
-34.83518 -5.85592 67.27365 
-34.75551 5.85885 67.31994 
-34.35979 -11.73179 67.15207 
-34.35588 11.74944 67.17531 
-37.47369 -36.54453 56.09083 
-37.30183 36.72372 56.40083 
-34.01195 -17.43483 66.23274 
-34.03148 17.42795 66.27048 
-33.95866 -23.07640 65.04409 
-33.89409 23.09128 65.14339 
-36.90980 -41.23846 51.81656 
-36.75049 41.61106 52.19028 
-33.66334 -28.55952 63.06083 
-33.50732 28.61599 63.22547 
-33.20491 -34.20061 60.93302 
-33.04404 34.24230 61.12190 
-30.64796 -3.11869 69.63506 
-30.60560 3.06638 69.66174 
-30.20503 -8.98747 69.38939 
-30.21511 9.01677 69.44012 
-29.61397 -14.69409 68.96844 
-29.59061 14.67204 69.01246 
-32.41907 -39.52586 57.66501 
-32.28524 39.63019 57.84060 
-29.43689 -20.44917 67.95010 
-29.41777 20.37671 68.01765 
-29.99173 -25.47487 66.19802 
-29.89652 25.43635 66.32445 
-29.50993 -31.03176 64.24909 
-29.39245 31.06008 64.37125 
-31.82703 -44.55651 54.07999 
-31.41605 44.80228 54.40210 
-28.96688 -36.51789 61.76379 
-28.78902 36.59632 61.86848 
-26.14782 -0.01217 71.64413 
-26.15868 -6.23723 71.65747 
-26.12947 6.21728 71.67935 
-25.39562 -12.17680 71.15612 
-25.31838 12.11523 71.17107 
-28.11121 -41.87988 58.67438 
-27.95363 41.93779 58.83109 
-25.11773 -17.85552 70.54620 
-25.06828 17.77924 70.61282 
-25.47510 -22.84599 69.01223 
-25.41798 22.82245 69.08960 
-25.95972 -27.91894 67.37235 
-25.89045 27.94304 67.45170 
-25.34586 -33.37578 65.09535 
-25.27326 33.41639 65.21866 
-27.13075 -47.02408 54.78217 
-26.86895 47.14350 54.84494 
-24.67139 -38.91941 62.64562 
-24.52450 38.98961 62.74884 
-26.35448 -51.02026 49.47628 
-26.01073 51.32761 49.65362 
-21.66571 -3.14219 73.32125 
-21.59877 3.12382 73.30233 
-21.33686 -9.30396 72.97942 
-21.32461 9.32735 72.98969 
-21.13994 -20.12815 71.33701 
-21.12595 20.11753 71.40508 
-20.80156 -15.03805 72.41245 
-20.71807 15.05970 72.46120 
-21.51295 -25.21350 69.84321 
-21.42098 25.21744 69.88429 
-21.79707 -30.18343 67.91950 
-21.73330 30.23717 67.97291 
-23.55521 -44.27530 59.17584 
-23.38641 44.38604 59.24565 
-21.13174 -35.63785 65.62866 
-20.98722 35.70522 65.70246 
-22.57583 -49.53223 54.95980 
-22.33683 49.64505 55.08549 
-20.10016 -41.16212 62.73344 
-19.93571 41.18858 62.84793 
-21.31830 -53.74433 49.77771 
-20.93793 53.93040 49.96613 
-17.18687 -0.01511 74.91289 
-16.98568 -6.21981 74.55884 
-17.00588 6.19179 74.55651 
-16.93991 -17.43725 73.19461 
-16.84993 17.42423 73.24245 
-17.21249 -22.55137 72.10128 
-17.16733 22.54108 72.14443 
-16.77354 -12.34661 74.16396 
-16.70779 12.30175 74.19680 
-17.39325 -27.51553 70.33446 
-17.36907 27.51457 70.38126 
-17.66752 -32.46888 68.40774 
-17.59928 32.51758 68.45296 
-18.91617 -46.52281 59.18921 
-18.80071 46.55131 59.28345 
-16.65883 -37.89509 65.77986 
-16.47352 37.91946 65.86403 
-17.69280 -51.49652 54.86815 
-17.46032 51.59886 54.95653 
-15.46847 -43.40825 62.93790 
-15.32282 43.45652 62.99909 
-12.75417 -3.17448 75.70294 
-12.71332 3.14758 75.75035 
-16.25026 -55.87755 49.78696 
-15.85662 56.07228 50.00607 
-12.83345 -19.76425 73.73727 
-12.80528 19.76593 73.75902 
-12.56752 -9.41712 75.33906 
-12.56105 9.33754 75.34678 
-12.98395 -24.80057 72.31252 
-12.91577 24.75610 72.35983 
-12.57958 -14.66614 74.71705 
-12.51506 14.60843 74.74893 
-13.08107 -29.79603 70.50032 
-13.04593 29.74493 70.56381 
-13.45267 -34.52876 68.28066 
-13.33641 34.50065 68.35931 
-14.14134 -48.53134 59.12959 
-14.04695 48.58079 59.18254 
-12.19600 -39.94623 65.63334 
-12.12647 39.97125 65.62919 
-12.93194 -53.53738 54.86192 
-12.63373 53.63015 54.92009 
-10.94786 -45.27881 62.37974 
-10.72668 45.33997 62.47914 
-8.46786 -0.00292 76.50276 
-8.40374 -11.68315 75.82787 
-8.37472 11.67504 75.81384 
-8.41524 -6.35095 76.46642 
-8.35279 6.33534 76.47897 
-8.52752 -16.84994 75.18769 
-8.48368 16.84500 75.20515 
-8.67428 -21.88651 73.89071 
-8.57581 21.89581 73.91494 
-8.83303 -31.71704 70.36516 
-8.74113 31.77592 70.40905 
-8.66619 -26.98303 72.45043 
-8.60245 26.97809 72.47635 
-9.05351 -36.54582 68.21190 
-8.98890 36.62990 68.20668 
-10.26584 -57.13871 50.98721 
-9.83695 57.16508 50.96154 
-9.53998 -50.42126 58.62656 
-9.41592 50.42200 58.70230 
-7.75938 -41.84610 65.16270 
-7.62290 41.89836 65.17955 
-6.32274 -47.14161 62.08487 
-6.06970 47.21998 62.08413 
-6.67445 -54.06660 55.59039 
-6.43400 54.06789 55.65369 
-4.15753 -3.17314 76.95377 
-4.10615 3.20460 76.96125 
-4.21345 -8.59035 76.57831 
-4.16975 8.58121 76.58257 
-4.21973 -13.91416 75.96745 
-4.18224 13.88519 76.00291 
-4.32190 -18.94420 75.09743 
-4.28131 18.97033 75.09860 
-4.32886 -23.91350 73.78293 
-4.22599 23.95586 73.78108 
-4.34433 -28.76316 72.08264 
-4.30856 28.71790 72.08163 
-4.46817 -33.51728 69.98524 
-4.41606 33.54081 69.99197 
-4.60187 -38.30522 67.57123 
-4.51224 38.35460 67.56525 
-3.63254 -57.54617 51.99679 
-3.27949 57.57056 51.97700 
-3.32373 -50.73193 59.28151 
-3.12409 50.76909 59.21395 
-3.10206 -43.55531 64.58674 
-2.92516 43.58410 64.58890 
-0.11703 -54.34694 56.28325 
-0.10204 -47.26850 62.09837 
-0.06085 -39.97734 66.96857 
-0.01962 -35.19295 69.35556 
0.00537 -30.45284 71.65975 
-0.05884 -25.56298 73.37453 
-0.01576 -20.84707 74.90715 
-0.00572 -15.86583 75.83146 
-0.00617 -10.75898 76.65095 
-0.04503 -5.34992 76.99851 
0.00000 0.00000 77.29870 
0.04503 5.34992 76.99851 
0.00617 10.75898 76.65095 
0.00572 15.86583 75.83146 
0.01576 20.84707 74.90715 
0.05884 25.56298 73.37453 
-0.00537 30.45284 71.65975 
0.01962 35.19295 69.35556 
0.06085 39.97734 66.96857 
0.10204 47.26850 62.09837 
0.11703 54.34694 56.28325 
2.92516 -43.58410 64.58890 
3.10206 43.55531 64.58674 
3.12409 -50.76909 59.21395 
3.32373 50.73193 59.28151 
3.27949 -57.57056 51.97700 
3.63254 57.54617 51.99679 
4.51224 -38.35460 67.56525 
4.60187 38.30522 67.57123 
4.41606 -33.54081 69.99197 
4.46817 33.51728 69.98524 
4.30856 -28.71790 72.08163 
4.34433 28.76316 72.08264 
4.22599 -23.95586 73.78108 
4.32886 23.91350 73.78293 
4.28131 -18.97033 75.09860 
4.32190 18.94420 75.09743 
4.18224 -13.88519 76.00291 
4.21973 13.91416 75.96745 
4.16975 -8.58121 76.58257 
4.21345 8.59035 76.57831 
4.10615 -3.20460 76.96125 
4.15753 3.17314 76.95377 
6.43400 -54.06789 55.65369 
6.67445 54.06660 55.59039 
6.06970 -47.21998 62.08413 
6.32274 47.14161 62.08487 
7.62290 -41.89836 65.17955 
7.75938 41.84610 65.16270 
9.41592 -50.42200 58.70230 
9.53998 50.42126 58.62656 
9.83695 -57.16508 50.96154 
10.26584 57.13871 50.98721 
8.98890 -36.62990 68.20668 
9.05351 36.54582 68.21190 
8.60245 -26.97809 72.47635 
8.66619 26.98303 72.45043 
8.74113 -31.77592 70.40905 
8.83303 31.71704 70.36516 
8.57581 -21.89581 73.91494 
8.67428 21.88651 73.89071 
8.48368 -16.84500 75.20515 
8.52752 16.84994 75.18769 
8.35279 -6.33534 76.47897 
8.41524 6.35095 76.46642 
8.37472 -11.67504 75.81384 
8.40374 11.68315 75.82787 
8.46786 0.00292 76.50276 
10.72668 -45.33997 62.47914 
10.94786 45.27881 62.37974 
12.63373 -53.63015 54.92009 
12.93194 53.53738 54.86192 
12.12647 -39.97125 65.62919 
12.19600 39.94623 65.63334 
14.04695 -48.58079 59.18254 
14.14134 48.53134 59.12959 
13.33641 -34.50065 68.35931 
13.45267 34.52876 68.28066 
13.04593 -29.74493 70.56381 
13.08107 29.79603 70.50032 
12.51506 -14.60843 74.74893 
12.57958 14.66614 74.71705 
12.91577 -24.75610 72.35983 
12.98395 24.80057 72.31252 
12.56105 -9.33754 75.34678 
12.56752 9.41712 75.33906 
12.80528 -19.76593 73.75902 
12.83345 19.76425 73.73727 
15.85662 -56.07228 50.00607 
16.25026 55.87755 49.78696 
12.71332 -3.14758 75.75035 
12.75417 3.17448 75.70294 
15.32282 -43.45652 62.99909 
15.46847 43.40825 62.93790 
17.46032 -51.59886 54.95653 
17.69280 51.49652 54.86815 
16.47352 -37.91946 65.86403 
16.65883 37.89509 65.77986 
18.80071 -46.55131 59.28345 
18.91617 46.52281 59.18921 
17.59928 -32.51758 68.45296 
17.66752 32.46888 68.40774 
17.36907 -27.51457 70.38126 
17.39325 27.51553 70.33446 
16.70779 -12.30175 74.19680 
16.77354 12.34661 74.16396 
17.16733 -22.54108 72.14443 
17.21249 22.55137 72.10128 
16.84993 -17.42423 73.24245 
16.93991 17.43725 73.19461 
17.00588 -6.19179 74.55651 
16.98568 6.21981 74.55884 
17.18687 0.01511 74.91289 
20.93793 -53.93040 49.96613 
21.31830 53.74433 49.77771 
19.93571 -41.18858 62.84793 
20.10016 41.16212 62.73344 
22.33683 -49.64505 55.08549 
22.57583 49.53223 54.95980 
20.98722 -35.70522 65.70246 
21.13174 35.63785 65.62866 
23.38641 -44.38604 59.24565 
23.55521 44.27530 59.17584 
21.73330 -30.23717 67.97291 
21.79707 30.18343 67.91950 
21.42098 -25.21744 69.88429 
[...]
CELL_DATA 40900
SCALARS Strain double 1
LOOKUP_TABLE default
0.01118
0.00757
-0.06462
-0.05195
0.00883
-0.06391
-0.05594
-0.07969
-0.06950
-0.07774
-0.06639
0.01043
0.01094
0.01182
0.01127
0.01113
0.01103
0.00530
0.01376
0.01178
0.00557
-0.03234
-0.11142
-0.13966
-0.03446
-0.11371
-0.13949
0.00022
-0.02677
-0.00130
-0.03215
0.00515
0.00776
0.07744
0.07328
0.00537
0.07917
0.07494
0.00166
0.08358
0.06198
0.00243
0.08322
0.06588
-0.02682
-0.06977
-0.10844
-0.05301
-0.02422
-0.06129
-0.10683
-0.05481
0.01044
-0.01333
0.00889
-0.01520
-0.07004
-0.13491
-0.09140
-0.06958
-0.13500
-0.09635
-0.16565
-0.11870
-0.16571
-0.12156
0.00085
0.00218
0.12493
0.12763
0.00177
0.12709
0.11031
0.00262
0.12715
0.10931
0.00644
0.13359
0.11642
0.00444
0.12812
0.11567
-0.03066
-0.04469
0.06474
-0.02747
-0.04586
0.06643
-0.04239
-0.06935
-0.00760
-0.03817
-0.07070
-0.00488
-0.04135
-0.10109
-0.04702
-0.03867
-0.09993
-0.04901
-0.13659
-0.08770
-0.13528
-0.09206
-0.00366
0.00091
0.17602
0.16012
-0.00175
0.17294
0.16236
0.01352
0.17090
0.15796
0.01476
0.17439
0.15979
0.01748
0.11593
0.15837
0.01922
0.11408
0.15678
-0.01913
-0.01620
0.09466
-0.01774
-0.01669
0.09458
-0.01489
-0.03869
0.04500
-0.01529
-0.03965
0.04489
-0.03265
-0.06862
-0.01151
-0.03112
-0.06691
-0.01175
-0.00479
-0.00576
0.20374
0.20724
-0.00127
0.25334
0.19643
-0.00073
0.24975
0.19566
0.01944
0.23729
0.29933
0.01813
0.23954
0.30142
-0.07733
-0.11040
-0.04417
-0.07161
-0.10988
-0.04570
0.01788
0.07034
0.22452
0.01941
0.07218
0.22564
0.00273
0.04618
0.16733
0.00464
0.04467
0.16827
-0.14677
-0.08012
-0.14761
-0.07720
-0.00912
-0.01063
0.09025
-0.01042
-0.01097
0.08985
-0.03351
-0.03778
0.03054
-0.03238
-0.03889
0.03514
-0.00578
-0.00683
0.25822
0.25089
-0.00337
0.25583
0.24980
0.03320
0.30765
0.21482
0.03238
0.30331
0.21451
0.04576
0.27687
0.36304
0.04405
0.27580
0.36550
-0.06240
-0.08425
-0.02621
-0.05511
-0.08230
-0.02566
0.00911
0.13974
0.28865
0.00930
0.14107
0.29007
0.00872
0.09307
0.17570
0.01077
0.09146
0.17562
-0.01249
0.01426
0.10155
-0.01054
0.01288
0.09875
-0.12618
-0.04706
-0.13023
-0.05539
-0.02643
-0.02114
0.02980
-0.02833
-0.02359
0.02813
-0.00413
-0.00401
0.28085
0.28152
-0.00342
0.28736
0.25251
-0.00498
0.28423
0.25055
0.02632
0.32119
0.49828
0.02522
0.32287
0.49484
-0.05987
-0.07369
-0.00879
-0.05726
-0.07397
-0.00474
0.03928
0.48994
0.25001
0.04047
0.48201
0.25480
0.01350
0.19878
0.30912
0.01451
0.19650
0.31316
0.00979
0.13245
0.21035
0.00826
0.13476
0.21076
-0.00839
0.04254
0.10066
-0.00709
0.04232
0.10696
-0.11032
-0.12320
-0.03454
-0.10617
-0.12491
-0.03570
-0.02636
-0.00267
0.03913
-0.02497
-0.00195
0.04028
-0.16474
-0.02771
-0.16652
-0.03085
-0.00272
-0.00265
0.33829
0.31455
-0.00102
0.33650
0.31268
0.04926
0.33640
0.29859
0.05041
0.33178
0.30526
0.06140
0.04039
0.34261
0.48884
0.05781
0.04189
0.34635
0.49315
0.71118
0.37575
0.71673
0.36881
0.02164
0.26285
0.33259
0.02224
0.25979
0.32703
0.00812
0.16684
0.18212
0.00858
0.16528
0.18268
-0.04988
-0.06490
-0.01395
-0.05040
-0.06171
-0.01726
-0.00215
0.05412
0.08568
-0.00416
0.05142
0.08752
-0.10094
-0.11531
-0.03165
-0.09823
-0.11587
-0.03132
-0.01662
-0.00026
0.00654
-0.01743
0.00058
0.00721
-0.16391
-0.02540
-0.16755
-0.02480
-0.00013
-0.00009
0.31900
0.32566
-0.00331
0.35560
0.30882
-0.00404
0.36462
0.31356
0.06107
0.04730
0.78926
0.42500
0.06091
0.04815
0.77757
0.41767
0.04855
0.41085
0.55221
0.04793
0.40894
0.55745
0.37026
0.37447
0.36144
0.37517
0.01834
0.31432
0.32387
0.01969
0.31595
0.32618
0.00921
0.19705
0.18144
0.00850
0.19549
0.18467
-0.04647
-0.06501
-0.03036
-0.04335
-0.06428
-0.02986
-0.00035
0.05742
0.06524
-0.00059
0.05625
0.06241
-0.09544
-0.12160
-0.04924
-0.09293
-0.12275
-0.04616
-0.01065
0.00456
-0.00904
-0.01112
0.00431
-0.00673
0.00074
0.00019
0.36717
0.36220
-0.00175
0.36140
0.36117
-0.17098
-0.07393
-0.17492
-0.07272
0.06830
0.04595
0.45568
0.80355
0.06477
0.04890
0.45639
0.81276
-0.00174
0.46816
0.39669
-0.00124
0.46220
0.40710
0.04271
0.43774
0.53762
0.04186
0.44363
0.53384
0.40964
0.68506
0.40620
0.67477
0.02046
0.31946
0.32593
0.01983
0.31749
0.32986
0.00588
0.19388
0.14594
0.00783
0.19364
0.14335
-0.03657
-0.06234
-0.05501
-0.03273
-0.05934
-0.05534
0.00156
0.04787
0.02809
0.00212
0.04722
0.03055
-0.04303
-0.12405
-0.11725
-0.03942
-0.12328
-0.11975
0.00370
-0.01062
-0.05123
0.00130
-0.01184
-0.04873
0.00006
0.00015
0.38382
0.38724
-0.00031
0.06390
0.39608
0.53760
0.00074
0.06194
0.39875
0.54549
0.38638
0.53424
0.38836
0.53014
0.09990
0.43511
0.68032
0.09983
0.43442
0.67765
0.05913
0.47769
0.78043
0.05864
0.47159
0.77602
0.03728
0.00942
0.30155
0.29095
0.03805
0.01041
0.29386
0.29044
0.42312
0.56466
0.42924
0.56768
0.00319
0.16255
0.12116
0.00158
0.16288
0.12252
-0.16483
-0.13474
-0.16444
-0.13718
-0.06942
0.00197
-0.12296
-0.07057
0.00316
-0.11949
0.00637
0.03662
0.00156
0.00767
0.03552
0.00293
-0.01323
-0.01704
-0.08446
-0.01382
-0.01598
-0.08606
-0.01435
-0.10268
-0.16181
-0.01001
-0.10557
-0.16231
-0.00044
0.00421
0.59243
0.38283
0.00216
0.37553
0.60141
-0.00042
0.60529
0.38137
-0.00160
0.38742
0.59842
0.06138
0.62738
0.39172
0.06548
0.39109
0.62385
0.09023
0.68714
0.35803
0.09117
0.35569
0.68973
0.05774
0.83123
0.47860
0.05432
0.46669
0.84466
0.01952
0.51074
0.37923
0.02127
0.38893
0.50349
0.00546
0.25710
0.24718
0.00623
0.24261
0.25728
0.00228
0.08204
0.11669
0.00209
0.11521
0.08292
-0.12731
-0.15858
-0.12626
-0.15858
-0.04781
-0.05170
-0.13597
-0.04886
-0.05148
-0.13597
-0.01057
0.00850
-0.02047
0.00829
-0.01179
-0.02047
-0.05148
-0.12626
-0.16231
-0.01179
-0.04886
-0.08606
-0.00279
0.00829
0.08292
0.01353
0.11521
0.25728
0.03919
0.24261
0.50349
0.08454
0.38893
0.84466
0.10534
0.46669
0.68973
0.08880
0.35569
0.62385
0.00284
0.39109
0.59842
-0.00031
0.38742
0.60141
-0.00031
0.37553
0.38283
0.00284
0.38137
0.59243
0.08880
0.39172
0.60529
0.10534
0.35803
0.62738
0.08454
0.47860
0.68714
0.03919
0.37923
0.83123
0.01353
0.24718
0.51074
-0.00279
0.11669
0.25710
0.00850
0.08204
-0.01057
-0.05170
-0.08446
-0.04781
-0.12731
-0.16181
0.00209
-0.01598
0.00293
0.00228
-0.01704
0.00156
-0.10557
-0.01382
-0.11949
-0.10268
-0.01323
-0.12296
-0.01001
-0.13718
-0.01435
-0.13474
0.00623
0.03552
0.12252
0.00546
0.03662
0.12116
0.02127
0.16288
0.29044
0.01952
0.16255
0.29095
0.05432
0.56768
0.29386
0.05774
0.56466
0.30155
0.09117
0.42924
0.77602
0.09023
0.42312
0.78043
0.06548
0.47159
0.67765
0.06138
0.47769
0.68032
-0.00160
0.43442
0.54549
-0.00042
0.43511
0.53760
0.00216
0.53014
0.39875
0.00421
0.53424
0.39608
-0.00044
0.38836
0.38724
0.38638
0.38382
0.00316
-0.16444
-0.11975
0.00197
-0.16483
-0.11725
0.00767
-0.07057
-0.04873
0.00637
-0.06942
-0.05123
0.00158
-0.01184
0.03055
0.00319
-0.01062
0.02809
0.00130
-0.12328
-0.05534
0.00370
-0.12405
-0.05501
-0.03942
-0.07272
-0.04303
-0.07393
0.01041
0.04722
0.14335
0.00942
0.04787
0.14594
0.03805
0.05864
0.32986
0.53384
0.03728
0.05913
0.32593
0.53762
0.19364
0.31749
0.19388
0.31946
0.09983
0.44363
0.81276
0.09990
0.43774
0.80355
0.06194
0.67477
0.45639
0.06390
0.68506
0.45568
0.00074
0.00015
0.40710
0.36117
-0.00031
0.00006
0.39669
0.36220
0.40620
0.46220
0.40964
0.46816
0.36140
0.36717
0.00212
-0.05934
-0.00673
0.00156
-0.06234
-0.00904
-0.03273
-0.17492
-0.04616
-0.03657
-0.17098
-0.04924
0.00783
0.00431
0.06241
0.00588
0.00456
0.06524
-0.01112
-0.12275
-0.02986
-0.01065
-0.12160
-0.03036
0.01983
0.05625
0.18467
0.02046
0.05742
0.18144
0.04186
0.19549
0.32618
0.04271
0.19705
0.32387
-0.00124
0.04890
0.37517
0.41767
-0.00174
0.04595
0.37447
0.42500
0.06477
0.31595
0.55745
0.06830
0.31432
0.55221
-0.00175
0.36144
0.31356
0.00019
0.37026
0.30882
0.40894
0.77757
0.41085
0.78926
-0.09293
-0.02480
-0.09544
-0.02540
0.00074
0.36462
0.32566
0.35560
0.31900
-0.00059
-0.06428
0.00721
-0.00035
-0.06501
0.00654
-0.04335
-0.16755
-0.03132
-0.04647
-0.16391
-0.03165
0.00850
0.00058
0.08752
0.00921
-0.00026
0.08568
-0.01743
-0.11587
-0.01726
-0.01662
-0.11531
-0.01395
0.01969
0.05142
0.18268
0.01834
0.05412
0.18212
0.04793
0.16528
0.32703
0.04855
0.16684
0.33259
0.04815
-0.00404
0.36881
0.30526
0.04730
-0.00331
0.37575
0.29859
0.06091
0.25979
0.49315
0.06107
0.26285
0.48884
0.71673
0.34635
0.71118
0.34261
-0.00009
0.33178
0.31268
-0.00013
0.33640
0.31455
0.33650
0.33829
-0.09823
-0.03085
-0.10094
-0.02771
-0.00416
-0.06171
0.04028
-0.00215
-0.06490
0.03913
-0.05040
-0.16652
-0.03570
-0.04988
-0.16474
-0.03454
0.00858
-0.00195
0.10696
0.00812
-0.00267
0.10066
-0.02497
-0.12491
-0.00474
-0.02636
-0.12320
-0.00879
0.02224
0.04232
0.21076
0.02164
0.04254
0.21035
0.04189
0.13476
0.31316
0.04039
0.13245
0.30912
0.05781
0.05041
0.25480
0.49484
0.06140
0.04926
0.25001
0.49828
0.19650
0.48201
0.19878
0.48994
-0.00102
0.32287
0.25055
-0.00265
0.32119
0.25251
-0.00272
0.28423
0.28152
0.28736
0.28085
-0.10617
-0.11032
-0.00709
-0.07397
0.02813
-0.00839
-0.07369
0.02980
-0.05726
-0.05539
-0.05987
-0.04706
0.00826
-0.02359
0.09875
0.00979
-0.02114
0.10155
0.01451
0.01288
0.17562
0.01350
0.01426
0.17570
0.04047
0.09146
0.29007
0.03928
0.09307
0.28865
0.02522
0.14107
0.36550
0.02632
0.13974
0.36304
-0.02833
-0.13023
-0.02566
-0.02643
-0.12618
-0.02621
-0.00498
0.27580
0.21451
-0.00342
0.27687
0.21482
-0.00401
0.30331
0.24980
-0.00413
0.30765
0.25089
0.25583
0.25822
-0.01054
-0.08230
0.03514
-0.01249
-0.08425
0.03054
-0.05511
-0.07720
-0.06240
-0.08012
0.01077
-0.03889
0.08985
0.00872
-0.03778
0.09025
0.00930
-0.01097
0.16827
0.00911
-0.01063
0.16733
0.04405
0.04467
0.22564
0.04576
0.04618
0.22452
-0.03238
-0.14761
-0.04570
-0.03351
-0.14677
-0.04417
0.03238
0.07218
0.30142
0.03320
0.07034
0.29933
-0.00337
0.23954
0.19566
-0.00683
0.23729
0.19643
-0.00578
0.24975
0.20724
0.25334
0.20374
-0.01042
-0.10988
-0.01175
-0.00912
-0.11040
-0.01151
0.00464
-0.06691
0.04489
0.00273
-0.06862
0.04500
-0.07161
-0.07733
0.01941
-0.03965
0.09458
0.01788
-0.03869
0.09466
0.01813
-0.01669
0.15678
0.01944
-0.01620
0.15837
-0.03112
-0.09206
-0.03265
-0.08770
-0.00073
0.11408
0.15979
-0.00127
0.11593
0.15796
-0.00576
0.17439
0.16236
-0.00479
0.17090
0.16012
0.17294
0.17602
-0.01529
-0.13528
-0.04901
-0.01489
-0.13659
-0.04702
-0.01774
-0.09993
-0.00488
-0.01913
-0.10109
-0.00760
0.01922
-0.07070
0.06643
0.01748
-0.06935
0.06474
0.01476
-0.04586
0.11567
0.01352
-0.04469
0.11642
-0.00175
0.12812
0.10931
0.00091
0.13359
0.11031
-0.00366
0.12715
0.12763
0.12709
0.12493
-0.03867
-0.12156
-0.04135
-0.11870
-0.03817
-0.16571
-0.09635
-0.04239
-0.16565
-0.09140
-0.02747
-0.13500
-0.05481
-0.03066
-0.13491
-0.05301
0.00444
-0.01520
-0.10683
0.00644
-0.01333
-0.10844
0.00262
0.00889
0.06588
0.00177
0.01044
0.06198
0.00218
0.08322
0.07494
0.00085
0.08358
0.07328
0.07917
0.07744
-0.06958
-0.07004
-0.06129
-0.06977
-0.02422
0.00243
-0.03215
-0.13949
-0.02682
0.00166
-0.02677
-0.13966
-0.11371
-0.11142
0.00537
-0.00130
0.00557
0.00776
0.00022
0.00530
0.00515
0.01178
0.01127
0.01103
0.01182
-0.03446
0.01376
-0.06639
-0.03234
0.01113
-0.06950
0.01094
-0.07774
-0.05594
0.01043
-0.07969
-0.05195
-0.06391
-0.06462
0.00883
0.00757
0.01118
0.00979
0.00890
0.03013
0.02959
0.00903
0.03073
0.02969
0.02636
0.02400
0.02529
0.02259
0.01010
0.01007
0.07430
0.07396
0.01241
0.07978
0.06355
0.01180
0.07969
0.06393
0.00212
-0.00433
0.00981
0.00110
-0.00263
0.01065
0.08586
0.05912
0.08627
0.06012
0.00812
0.00848
0.11042
0.09647
0.00851
0.11008
0.09658
0.00944
0.12078
0.08498
0.00916
0.11967
0.08464
0.00819
-0.03915
-0.03214
0.07008
0.00996
-0.03802
-0.03140
0.06957
0.12193
0.12365
0.12002
0.12279
-0.04540
-0.06840
0.00565
-0.04678
-0.06696
0.00897
-0.10128
-0.03331
-0.10079
-0.03027
0.00477
0.00382
0.12376
0.12466
0.00441
0.14057
0.11590
0.00443
0.13935
0.11753
0.02016
0.14806
0.10218
0.02197
0.14704
0.10270
-0.00950
0.11315
0.19337
-0.00848
0.11229
0.19210
-0.02624
0.01306
0.12473
-0.02493
0.01358
0.12608
-0.02472
-0.02317
0.05749
-0.02503
-0.02289
0.05856
-0.06003
0.01114
-0.06025
0.01137
0.00107
0.00012
0.14816
0.14205
0.00020
0.14743
0.14341
0.00464
0.16093
0.12364
0.00473
0.16004
0.12349
0.01882
0.16423
0.26102
0.01887
0.16317
0.26178
-0.00234
0.04663
0.26095
-0.00108
0.04611
0.26217
-0.00309
0.05582
0.17454
-0.00226
0.05575
0.17629
-0.02554
0.02465
0.11128
-0.02442
0.02454
0.11211
-0.00230
-0.00181
0.18328
0.18493
-0.00143
0.21361
0.16254
-0.00152
0.21221
0.16307
0.03383
0.22458
0.13883
0.03391
0.22288
0.14004
-0.05747
-0.02093
0.04743
-0.05777
-0.02038
0.04636
0.03414
0.24081
0.38780
0.03484
0.23860
0.38856
0.01754
0.12992
0.29729
0.01745
0.12935
0.29812
-0.06978
0.00275
-0.06918
0.00183
-0.00064
0.06759
0.21157
0.00093
0.06660
0.21263
-0.02000
0.03773
0.12894
-0.01974
0.03790
0.12827
-0.00389
-0.00343
0.21578
0.19513
-0.00389
0.21400
0.19493
-0.00075
0.24285
0.17250
-0.00092
0.24102
0.17304
0.03035
0.25084
0.42542
0.02992
0.24962
0.42719
-0.04393
0.00200
0.06530
-0.04598
0.00324
0.06820
0.02699
0.20371
0.45825
0.02712
0.20168
0.46001
0.01967
0.17272
0.33074
0.02027
0.17103
0.33219
0.00366
0.09860
0.21914
0.00391
0.09676
0.22071
-0.04893
0.01053
-0.04737
0.01406
-0.01765
0.06605
0.12894
-0.01674
0.06627
0.13194
-0.00322
-0.00352
0.23671
0.23739
-0.00512
0.25816
0.21376
-0.00445
0.25687
0.21507
0.05346
0.27390
0.18645
0.05312
0.27147
0.18794
-0.04531
0.02411
0.05837
-0.04365
0.02392
0.05813
0.04895
0.66433
0.32519
0.04830
0.66679
0.32464
0.03305
0.27006
0.48554
0.03383
0.26882
0.48534
0.02270
0.22432
0.32762
0.02347
0.22255
0.32807
0.00460
0.12277
0.20392
0.00488
0.12129
0.20387
-0.09129
-0.03914
0.01236
-0.09004
-0.03741
0.01391
-0.01045
0.08574
0.10564
-0.01088
0.08484
0.10577
-0.09245
0.00189
-0.09063
0.00217
-0.00187
-0.00388
0.28046
0.26579
-0.00376
0.28010
0.26703
-0.00323
0.30052
0.24266
-0.00331
0.29961
0.24298
0.04454
0.05978
0.35873
0.72862
0.04383
0.05959
0.35716
0.72671
0.61062
0.31436
0.61033
0.31232
0.03877
0.31870
0.49240
0.03891
0.31741
0.49393
0.02308
0.26189
0.31521
0.02292
0.26096
0.31709
-0.03808
0.03767
0.04214
-0.03626
0.03821
0.04334
0.00760
0.14347
0.17273
0.00762
0.14281
0.17460
-0.07952
-0.02632
0.01021
-0.07929
-0.02542
0.00970
-0.00511
0.09915
0.07548
-0.00508
0.09931
0.07713
-0.08940
-0.00055
-0.08889
-0.00241
-0.00208
-0.00176
0.29560
0.29596
-0.00179
0.32301
0.27338
-0.00202
0.32115
0.27409
0.09136
0.06550
1.03420
0.37817
0.09090
0.06560
1.03945
0.37567
0.06427
0.42265
0.74229
0.06446
0.42120
0.74286
0.34168
0.33956
0.33946
0.33992
0.04200
0.38545
0.47266
0.04169
0.38274
0.47280
0.02181
0.30345
0.27587
0.02185
0.30295
0.27620
-0.02993
0.04470
0.01909
-0.02920
0.04447
0.01951
0.00764
0.13924
0.12827
0.00857
0.13881
0.12906
-0.07644
-0.02491
0.00196
-0.07719
-0.02475
0.00187
0.00309
0.09228
0.03591
0.00231
0.09263
0.03559
-0.00042
-0.00018
0.34423
0.32309
-0.00045
0.34402
0.32479
-0.08973
-0.00649
-0.08933
-0.00642
0.09844
0.07176
0.39982
0.95972
0.09851
0.07071
0.39666
0.95785
0.00030
0.41225
0.36201
0.00060
0.41308
0.36025
0.06439
0.45620
0.73273
0.06380
0.45395
0.73228
0.37838
0.72782
0.37680
0.73282
0.03867
0.44248
0.39976
0.03844
0.44408
0.39626
0.01488
0.29778
0.23400
0.01565
0.29565
0.23534
-0.02057
0.03304
-0.00573
-0.02108
0.03342
-0.00497
0.01071
0.12985
0.08958
0.01055
0.12803
0.09036
-0.04813
-0.03897
-0.03718
-0.04860
-0.03905
-0.03583
0.01420
0.07726
0.00424
0.01352
0.07743
0.00565
0.00101
0.00046
0.35247
0.35429
0.00161
0.10405
0.37533
0.50789
0.00142
0.10471
0.37478
0.50487
0.36849
0.51970
0.36808
0.52019
0.13777
0.43437
0.62812
0.13727
0.43353
0.62749
0.09898
0.44062
0.86704
0.09883
0.43892
0.87188
0.05624
0.02860
0.38107
0.40420
0.05589
0.02895
0.38011
0.40410
0.47838
0.71520
0.47536
0.71750
0.01069
0.26350
0.19457
0.01109
0.26252
0.19470
-0.08747
-0.01459
-0.08738
-0.01331
0.01223
0.01560
-0.05534
0.01286
0.01568
-0.05471
0.01731
0.09596
0.06045
0.01643
0.09550
0.06105
0.01872
0.04422
-0.01673
0.01773
0.04427
-0.01601
-0.02049
-0.04132
-0.09688
-0.02050
-0.04182
-0.09549
0.00159
0.00109
0.58517
0.36347
0.00103
0.36321
0.58375
0.00183
0.59150
0.36672
0.00217
0.36669
0.58894
0.10168
0.62359
0.36444
0.10065
0.36355
0.62338
0.14262
0.62738
0.46260
0.14274
0.46152
0.62849
0.08916
0.91876
0.48962
0.08944
0.48995
0.91842
0.04394
0.66664
0.45717
0.04391
0.45550
0.66884
0.01488
0.37153
0.31762
0.01473
0.31653
0.37310
0.01339
0.17254
0.19659
0.01350
0.19539
0.17347
-0.05950
-0.01257
-0.06029
-0.01257
-0.00363
0.00568
-0.07474
0.00625
-0.00274
-0.07474
0.02107
0.05471
0.06667
0.05445
0.02079
0.06667
-0.00274
-0.06029
-0.09549
0.02079
0.00625
-0.01601
0.00796
0.05445
0.17347
0.02836
0.19539
0.37310
0.07486
0.31653
0.66884
0.13163
0.45550
0.91842
0.09428
0.48995
0.62849
0.00097
0.46152
0.62338
0.00096
0.36355
0.58894
0.00102
0.36669
0.58375
0.00102
0.36321
0.36347
0.00096
0.36672
0.58517
0.00097
0.36444
0.59150
0.09428
0.46260
0.62359
0.13163
0.48962
0.62738
0.07486
0.45717
0.91876
0.02836
0.31762
0.66664
0.00796
0.19659
0.37153
0.05471
0.17254
0.02107
0.00568
-0.01673
-0.00363
-0.05950
-0.09688
0.01350
0.04427
0.06105
0.01339
0.04422
0.06045
-0.04182
0.01773
-0.05471
-0.04132
0.01872
-0.05534
-0.02050
-0.01331
-0.02049
-0.01459
0.01473
0.09550
0.19470
0.01488
0.09596
0.19457
0.04391
0.26252
0.40410
0.04394
0.26350
0.40420
0.08944
0.71750
0.38011
0.08916
0.71520
0.38107
0.14274
0.47536
0.87188
0.14262
0.47838
0.86704
0.10065
0.43892
0.62749
0.10168
0.44062
0.62812
0.00217
0.43353
0.50487
0.00183
0.43437
0.50789
0.00103
0.52019
0.37478
0.00109
0.51970
0.37533
0.00159
0.36808
0.35429
0.36849
0.35247
0.01568
-0.08738
-0.03583
0.01560
-0.08747
-0.03718
0.01643
0.01286
0.00565
0.01731
0.01223
0.00424
0.01109
0.07743
0.09036
0.01069
0.07726
0.08958
0.01352
-0.03905
-0.00497
0.01420
-0.03897
-0.00573
-0.04860
-0.00642
-0.04813
-0.00649
0.02895
0.12803
0.23534
0.02860
0.12985
0.23400
0.05589
0.09883
0.39626
0.73228
0.05624
0.09898
0.39976
0.73273
0.29565
0.44408
0.29778
0.44248
0.13727
0.45395
0.95785
0.13777
0.45620
0.95972
0.10471
0.73282
0.39666
0.10405
0.72782
0.39982
0.00142
0.00046
0.36025
0.32479
0.00161
0.00101
0.36201
0.32309
0.37680
0.41308
0.37838
0.41225
0.34402
0.34423
0.01055
0.03342
0.03559
0.01071
0.03304
0.03591
-0.02108
-0.08933
0.00187
-0.02057
-0.08973
0.00196
0.01565
0.09263
0.12906
0.01488
0.09228
0.12827
0.00231
-0.02475
0.01951
0.00309
-0.02491
0.01909
0.03844
0.13881
0.27620
0.03867
0.13924
0.27587
0.06380
0.30295
0.47280
0.06439
0.30345
0.47266
0.00060
0.07071
0.33992
0.37567
0.00030
0.07176
0.33956
0.37817
0.09851
0.38274
0.74286
0.09844
0.38545
0.74229
-0.00045
0.33946
0.27409
-0.00018
0.34168
0.27338
0.42120
1.03945
0.42265
1.03420
-0.07719
-0.00241
-0.07644
-0.00055
-0.00042
0.32115
0.29596
0.32301
0.29560
0.00857
0.04447
0.07713
0.00764
0.04470
0.07548
-0.02920
-0.08889
0.00970
-0.02993
-0.08940
0.01021
0.02185
0.09931
0.17460
0.02181
0.09915
0.17273
-0.00508
-0.02542
0.04334
-0.00511
-0.02632
0.04214
0.04169
0.14281
0.31709
0.04200
0.14347
0.31521
0.06446
0.26096
0.49393
0.06427
0.26189
0.49240
0.06560
-0.00202
0.31232
0.24298
0.06550
-0.00179
0.31436
0.24266
0.09090
0.31741
0.72671
0.09136
0.31870
0.72862
0.61033
0.35716
0.61062
0.35873
-0.00176
0.29961
0.26703
-0.00208
0.30052
0.26579
0.28010
0.28046
-0.07929
0.00217
-0.07952
0.00189
0.00762
0.03821
0.10577
0.00760
0.03767
0.10564
-0.03626
-0.09063
0.01391
-0.03808
-0.09245
0.01236
0.02292
0.08484
0.20387
0.02308
0.08574
0.20392
-0.01088
-0.03741
0.05813
-0.01045
-0.03914
0.05837
0.03891
0.12129
0.32807
0.03877
0.12277
0.32762
0.05959
0.22255
0.48534
0.05978
0.22432
0.48554
0.04383
-0.00331
0.32464
0.18794
0.04454
-0.00323
0.32519
0.18645
0.26882
0.66679
0.27006
0.66433
-0.00376
0.27147
0.21507
-0.00388
0.27390
0.21376
-0.00187
0.25687
0.23739
0.25816
0.23671
-0.09004
-0.09129
0.00488
0.02392
0.13194
0.00460
0.02411
0.12894
-0.04365
0.01406
-0.04531
0.01053
0.02347
0.06627
0.22071
0.02270
0.06605
0.21914
0.03383
0.09676
0.33219
0.03305
0.09860
0.33074
0.04830
0.17103
0.46001
0.04895
0.17272
0.45825
0.05312
0.20168
0.42719
0.05346
0.20371
0.42542
-0.01674
-0.04737
0.06820
-0.01765
-0.04893
0.06530
-0.00445
0.24962
0.17304
-0.00512
0.25084
0.17250
-0.00352
0.24102
0.19493
-0.00322
0.24285
0.19513
0.21400
0.21578
0.00391
0.00324
0.12827
0.00366
0.00200
0.12894
-0.04598
0.00183
-0.04393
0.00275
0.02027