# vtk DataFile Version 3.0
Point representing Sub_cellular elem model
ASCII

DATASET UNSTRUCTURED_GRID
POINTS 3657 float
-58.15583 -3.15523 51.35396 
-58.15559 3.15741 51.35426 
-57.79378 -9.40693 50.99391 
-57.79379 9.40965 50.99445 
-55.18975 0.00065 54.63011 
-55.00802 -6.25620 54.45041 
-55.00828 6.25772 54.45004 
-54.63398 -17.76661 52.22565 
-54.63231 17.76800 52.22558 
-54.47426 -12.47036 53.91720 
-54.47285 12.47249 53.91810 
-51.77967 -3.15811 57.77989 
-51.77991 3.15918 57.77970 
-51.41837 -9.41055 57.42245 
-51.41821 9.41104 57.42246 
-50.95022 -20.75891 54.79533 
-50.94926 20.76036 54.79469 
-50.89219 -15.47649 56.57048 
-50.89126 15.47735 56.57091 
-50.72100 -25.97944 52.72905 
-50.72030 25.98208 52.73001 
-50.21546 -31.03021 50.42092 
-50.21386 31.03279 50.42098 
-48.26424 0.00001 60.82525 
-48.10556 -6.30072 60.62829 
-48.10549 6.30099 60.62832 
-47.73152 -12.39257 59.97958 
-47.73137 12.39326 59.98019 
-47.07062 -18.40883 58.95638 
-47.07017 18.40940 58.95650 
-46.99663 -23.69732 57.09322 
-46.99609 23.69845 57.09325 
-46.68276 -28.86374 54.93440 
-46.68185 28.86548 54.93428 
-45.38889 -34.47180 52.73748 
-45.38664 34.47356 52.73636 
-44.54541 -3.15793 63.51596 
-44.54514 3.15851 63.51613 
-44.28523 -9.24604 63.10404 
-44.28496 9.24593 63.10358 
-43.77025 -15.31335 62.28228 
-43.77019 15.31376 62.28218 
-43.02287 -21.24788 61.05569 
-43.02281 21.24888 61.05537 
-42.85842 -26.50679 59.08744 
-42.85760 26.50797 59.08739 
-41.65372 -32.16417 57.10887 
-41.65286 32.16510 57.10896 
-40.76164 0.00022 66.08361 
-40.63238 -6.09150 65.87950 
-40.63171 6.09174 65.87977 
-40.25005 -12.14545 65.28096 
-40.25022 12.14590 65.28076 
-40.20350 -37.67395 54.72803 
-40.20240 37.67538 54.72932 
-39.62998 -18.12176 64.27155 
-39.63048 18.12204 64.27127 
-38.77409 -23.98707 62.86668 
-38.77387 23.98737 62.86670 
-38.54790 -42.88765 51.99391 
-38.54688 42.89021 51.99487 
-37.67692 -29.70532 61.06786 
-37.67602 29.70571 61.06835 
-36.34782 -35.24583 58.89451 
-36.34692 35.24611 58.89493 
-35.98549 -3.20635 68.72024 
-35.98515 3.20607 68.72041 
-35.72064 -9.29732 68.30432 
-35.72099 9.29789 68.30482 
-35.20109 -15.38470 67.47598 
-35.20115 15.38473 67.47594 
-34.79145 -40.56740 56.34641 
-34.79081 40.56818 56.34626 
-34.45115 -21.31900 66.24644 
-34.45134 21.31853 66.24638 
-34.33796 -26.60875 64.37037 
-34.33757 26.60839 64.37072 
-33.12986 -32.25691 62.39461 
-33.12941 32.25711 62.39473 
-33.02509 -45.63896 53.45060 
-33.02212 45.64024 53.45158 
-31.67977 -37.74471 60.02721 
-31.67877 37.74510 60.02679 
-31.07729 -0.00001 71.14333 
-30.97115 -6.39134 70.90748 
-30.97101 6.39137 70.90751 
-30.53493 -12.49977 70.28029 
-30.53437 12.49939 70.27984 
-30.01688 -42.96148 57.31132 
-30.01609 42.96175 57.31147 
-29.92274 -18.52431 69.21723 
-29.92266 18.52398 69.21736 
-29.90776 -23.87470 67.56808 
-29.90772 23.87466 67.56812 
-29.74141 -29.10536 65.56999 
-29.74132 29.10569 65.56987 
-28.38952 -34.68976 63.41744 
-28.38968 34.69016 63.41778 
-28.07700 -48.07471 54.13731 
-28.07522 48.07522 54.13657 
-26.86019 -40.06337 60.87171 
-26.85959 40.06380 60.87164 
-26.00695 -52.70786 50.72316 
-26.00458 52.70933 50.72307 
-25.89369 -3.20636 73.11876 
-25.89309 3.20647 73.11818 
-25.74813 -9.53313 72.61891 
-25.74817 9.53368 72.61879 
-25.24977 -21.00018 70.36107 
-25.25024 21.00042 70.36141 
-25.21380 -15.61376 71.75398 
-25.21339 15.61435 71.75410 
-25.17561 -26.32167 68.58189 
-25.17518 26.32177 68.58141 
-25.00247 -31.46188 66.45052 
-25.00250 31.46241 66.45026 
-25.00569 -45.31369 57.90223 
-25.00489 45.31448 57.90184 
-23.56355 -36.95868 64.10845 
-23.56302 36.95916 64.10833 
-22.98909 -50.26798 54.54512 
-22.98780 50.26865 54.54497 
-21.75283 -42.31160 61.38267 
-21.75219 42.31158 61.38291 
-20.77987 -54.75850 50.97011 
-20.77735 54.75929 50.97049 
-20.64262 -0.00004 74.84277 
-20.57055 -6.32702 74.59202 
-20.57091 6.32696 74.59186 
-20.45908 -18.04078 72.69598 
-20.45865 18.04090 72.69605 
-20.45918 -23.37888 71.16833 
-20.45933 23.37898 71.16824 
-20.35940 -12.61115 73.85551 
-20.35913 12.61105 73.85558 
-20.35359 -28.59653 69.26863 
-20.35397 28.59663 69.26849 
-20.14712 -33.67108 67.01719 
-20.14715 33.67154 67.01695 
-19.81141 -47.42806 58.21707 
-19.81121 47.42811 58.21700 
-18.40160 -39.13119 64.50593 
-18.40074 39.13120 64.50614 
-17.78164 -52.20089 54.67339 
-17.78051 52.20153 54.67320 
-16.53385 -44.34331 61.57884 
-16.53346 44.34356 61.57875 
-15.52073 -3.20265 75.99971 
-15.52043 3.20259 76.00044 
-15.49832 -56.52620 50.92310 
-15.49562 56.52733 50.92404 
-15.42249 -20.30162 73.34370 
-15.42282 20.30186 73.34356 
-15.37822 -9.52806 75.49986 
-15.37845 9.52747 75.49977 
-15.36962 -25.65664 71.66080 
-15.36961 25.65622 71.66091 
-15.35820 -14.88996 74.63769 
-15.35808 14.88959 74.63779 
-15.21997 -30.83486 69.62536 
-15.22033 30.83435 69.62552 
-15.19522 -35.71825 67.25826 
-15.19493 35.71781 67.25856 
-14.55591 -49.26581 58.24323 
-14.55591 49.26609 58.24300 
-13.38427 -41.06760 64.53723 
-13.38443 41.06762 64.53652 
-12.48596 -53.87126 54.52485 
-12.48427 53.87174 54.52475 
-11.44464 -46.17939 61.38101 
-11.44382 46.17986 61.38149 
-10.34081 0.00008 76.94459 
-10.31804 -11.76945 76.04703 
-10.31816 11.76967 76.04643 
-10.30352 -6.38624 76.68868 
-10.30312 6.38638 76.68872 
-10.28628 -17.09120 75.04291 
-10.28642 17.09136 75.04286 
-10.27203 -22.50370 73.60341 
-10.27159 22.50392 73.60344 
-10.20912 -32.77674 69.65197 
-10.20897 32.77748 69.65224 
-10.20020 -27.80152 71.78608 
-10.20029 27.80161 71.78603 
-10.17139 -37.59765 67.18374 
-10.17159 37.59847 67.18326 
-9.42993 -57.37752 51.46509 
-9.42707 57.37733 51.46436 
-9.41419 -50.95362 57.84892 
-9.41400 50.95345 57.84908 
-8.26416 -42.83468 64.24624 
-8.26382 42.83509 64.24602 
-6.29962 -47.79473 60.89152 
-6.29848 47.79527 60.89121 
-6.26637 -54.40137 55.06705 
-6.26518 54.40114 55.06733 
-5.16566 -3.20349 77.40143 
-5.16528 3.20405 77.40153 
-5.16482 -8.57553 76.99230 
-5.16470 8.57563 76.99229 
-5.15788 -13.95121 76.20605 
-5.15802 13.95107 76.20659 
-5.15794 -19.20611 75.05895 
-5.15817 19.20649 75.05882 
-5.11696 -24.58858 73.47660 
-5.11655 24.58914 73.47642 
-5.11197 -29.62566 71.59562 
-5.11235 29.62515 71.59522 
-5.10047 -34.56397 69.34864 
-5.10077 34.56421 69.34851 
-5.09861 -39.29658 66.78451 
-5.09865 39.29702 66.78425 
-3.16779 -57.73336 51.83833 
-3.16561 57.73352 51.83802 
-3.15962 -51.31002 58.21490 
-3.15883 51.31012 58.21411 
-3.15558 -44.40621 63.63271 
-3.15495 44.40648 63.63255 
-0.00058 -54.57835 55.25407 
-0.00040 -47.95178 61.09048 
-0.00007 -40.80942 66.07182 
0.00022 -36.14265 68.73001 
0.00046 -31.30768 71.06323 
-0.00032 -26.32417 73.05202 
0.00022 -21.21984 74.69666 
0.00026 -16.00999 75.97840 
0.00011 -10.72145 76.90152 
-0.00034 -5.37357 77.45478 
-0.00000 -0.00000 77.64362 
0.00034 5.37357 77.45478 
-0.00011 10.72145 76.90152 
-0.00026 16.00999 75.97840 
-0.00022 21.21984 74.69666 
0.00032 26.32417 73.05202 
-0.00046 31.30768 71.06323 
-0.00022 36.14265 68.73001 
0.00007 40.80942 66.07182 
0.00040 47.95178 61.09048 
0.00058 54.57835 55.25407 
3.15495 -44.40648 63.63255 
3.15558 44.40621 63.63271 
3.15883 -51.31012 58.21411 
3.15962 51.31002 58.21490 
3.16561 -57.73352 51.83802 
3.16779 57.73336 51.83833 
5.09865 -39.29702 66.78425 
5.09861 39.29658 66.78451 
5.10077 -34.56421 69.34851 
5.10047 34.56397 69.34864 
5.11235 -29.62515 71.59522 
5.11197 29.62566 71.59562 
5.11655 -24.58914 73.47642 
5.11696 24.58858 73.47660 
5.15817 -19.20649 75.05882 
5.15794 19.20611 75.05895 
5.15802 -13.95107 76.20659 
5.15788 13.95121 76.20605 
5.16470 -8.57563 76.99229 
5.16482 8.57553 76.99230 
5.16528 -3.20405 77.40153 
5.16566 3.20349 77.40143 
6.26518 -54.40114 55.06733 
6.26637 54.40137 55.06705 
6.29848 -47.79527 60.89121 
6.29962 47.79473 60.89152 
8.26382 -42.83509 64.24602 
8.26416 42.83468 64.24624 
9.41400 -50.95345 57.84908 
9.41419 50.95362 57.84892 
9.42707 -57.37733 51.46436 
9.42993 57.37752 51.46509 
10.17159 -37.59847 67.18326 
10.17139 37.59765 67.18374 
10.20029 -27.80161 71.78603 
10.20020 27.80152 71.78608 
10.20897 -32.77748 69.65224 
10.20912 32.77674 69.65197 
10.27159 -22.50392 73.60344 
10.27203 22.50370 73.60341 
10.28642 -17.09136 75.04286 
10.28628 17.09120 75.04291 
10.30312 -6.38638 76.68872 
10.30352 6.38624 76.68868 
10.31816 -11.76967 76.04643 
10.31804 11.76945 76.04703 
10.34081 -0.00008 76.94459 
11.44382 -46.17986 61.38149 
11.44464 46.17939 61.38101 
12.48427 -53.87174 54.52475 
12.48596 53.87126 54.52485 
13.38443 -41.06762 64.53652 
13.38427 41.06760 64.53723 
14.55591 -49.26609 58.24300 
14.55591 49.26581 58.24323 
15.19493 -35.71781 67.25856 
15.19522 35.71825 67.25826 
15.22033 -30.83435 69.62552 
15.21997 30.83486 69.62536 
15.35808 -14.88959 74.63779 
15.35820 14.88996 74.63769 
15.36961 -25.65622 71.66091 
15.36962 25.65664 71.66080 
15.37845 -9.52747 75.49977 
15.37822 9.52806 75.49986 
15.42282 -20.30186 73.34356 
15.42249 20.30162 73.34370 
15.49562 -56.52733 50.92404 
15.49832 56.52620 50.92310 
15.52043 -3.20259 76.00044 
15.52073 3.20265 75.99971 
16.53346 -44.34356 61.57875 
16.53385 44.34331 61.57884 
17.78051 -52.20153 54.67320 
17.78164 52.20089 54.67339 
18.40074 -39.13120 64.50614 
18.40160 39.13119 64.50593 
19.81121 -47.42811 58.21700 
19.81141 47.42806 58.21707 
20.14715 -33.67154 67.01695 
20.14712 33.67108 67.01719 
20.35397 -28.59663 69.26849 
20.35359 28.59653 69.26863 
20.35913 -12.61105 73.85558 
20.35940 12.61115 73.85551 
20.45933 -23.37898 71.16824 
20.45918 23.37888 71.16833 
20.45865 -18.04090 72.69605 
20.45908 18.04078 72.69598 
20.57091 -6.32696 74.59186 
20.57055 6.32702 74.59202 
20.64262 0.00004 74.84277 
20.77735 -54.75929 50.97049 
20.77987 54.75850 50.97011 
21.75219 -42.31158 61.38291 
21.75283 42.31160 61.38267 
22.98780 -50.26865 54.54497 
22.98909 50.26798 54.54512 
23.56302 -36.95916 64.10833 
23.56355 36.95868 64.10845 
25.00489 -45.31448 57.90184 
25.00569 45.31369 57.90223 
25.00250 -31.46241 66.45026 
25.00247 31.46188 66.45052 
[...]
CELL_DATA 40900
SCALARS Strain double 1
LOOKUP_TABLE default
0.00002
-0.00003
-0.00097
-0.00081
0.00006
-0.00093
-0.00101
-0.00124
-0.00162
-0.00124
-0.00149
-0.00005
-0.00002
0.00128
0.00121
-0.00044
0.00117
0.00103
-0.00033
0.00124
0.00101
-0.00060
-0.00345
-0.00284
-0.00067
-0.00358
-0.00282
0.00104
-0.00139
0.00098
-0.00162
-0.00011
-0.00007
0.00304
0.00309
-0.00016
0.00319
0.00306
-0.00032
0.00332
0.00278
-0.00026
0.00333
0.00286
-0.00078
-0.00140
-0.00247
-0.00227
-0.00062
-0.00131
-0.00239
-0.00230
0.00168
-0.00065
0.00164
-0.00077
-0.00154
-0.00272
-0.00288
-0.00147
-0.00275
-0.00302
-0.00385
-0.00397
-0.00389
-0.00403
-0.00013
-0.00010
0.00463
0.00473
-0.00028
0.00481
0.00475
-0.00022
0.00481
0.00470
0.00010
0.00494
0.00384
0.00010
0.00492
0.00375
-0.00038
-0.00061
0.00101
-0.00028
-0.00066
0.00097
-0.00100
-0.00092
-0.00048
-0.00089
-0.00100
-0.00044
-0.00092
-0.00170
-0.00160
-0.00082
-0.00167
-0.00166
-0.00320
-0.00329
-0.00314
-0.00334
-0.00019
-0.00011
0.00576
0.00593
-0.00021
0.00572
0.00595
-0.00015
0.00590
0.00614
-0.00008
0.00598
0.00615
0.00084
0.00414
0.00437
0.00094
0.00410
0.00427
-0.00029
0.00018
0.00263
-0.00027
0.00020
0.00261
-0.00019
-0.00000
0.00085
-0.00024
-0.00000
0.00082
-0.00077
-0.00100
-0.00065
-0.00076
-0.00092
-0.00068
-0.00021
-0.00024
0.00669
0.00668
-0.00034
0.00723
0.00671
-0.00030
0.00722
0.00662
0.00019
0.00714
0.00805
0.00016
0.00716
0.00804
-0.00152
-0.00254
-0.00256
-0.00134
-0.00258
-0.00273
0.00054
0.00250
0.00524
0.00054
0.00259
0.00523
0.00017
0.00198
0.00365
0.00018
0.00198
0.00364
-0.00330
-0.00299
-0.00336
-0.00281
0.00004
0.00071
0.00180
0.00002
0.00071
0.00170
-0.00014
-0.00039
-0.00036
-0.00004
-0.00046
-0.00037
-0.00034
-0.00031
0.00773
0.00753
-0.00018
0.00766
0.00752
0.00037
0.00794
0.00755
0.00030
0.00802
0.00754
0.00151
0.00697
0.00898
0.00142
0.00705
0.00898
-0.00118
-0.00156
-0.00189
-0.00109
-0.00153
-0.00190
0.00034
0.00415
0.00669
0.00034
0.00418
0.00677
0.00027
0.00315
0.00431
0.00037
0.00306
0.00430
0.00003
0.00153
0.00184
0.00012
0.00145
0.00177
-0.00317
-0.00265
-0.00339
-0.00294
-0.00012
0.00021
-0.00010
-0.00018
0.00017
-0.00015
-0.00033
-0.00032
0.00812
0.00818
-0.00028
0.00836
0.00813
-0.00033
0.00838
0.00814
0.00015
0.00814
0.01170
0.00014
0.00800
0.01178
-0.00077
-0.00131
-0.00163
-0.00062
-0.00137
-0.00160
0.00075
0.01037
0.00696
0.00080
0.01034
0.00693
0.00042
0.00565
0.00713
0.00049
0.00559
0.00718
0.00028
0.00401
0.00449
0.00026
0.00404
0.00448
0.00011
0.00211
0.00176
0.00017
0.00205
0.00187
-0.00193
-0.00318
-0.00255
-0.00183
-0.00326
-0.00261
0.00006
0.00053
-0.00038
0.00014
0.00051
-0.00040
-0.00450
-0.00155
-0.00455
-0.00156
-0.00034
-0.00038
0.00899
0.00894
-0.00032
0.00895
0.00882
0.00110
0.00888
0.00833
0.00111
0.00889
0.00833
0.00158
0.00101
0.00823
0.01126
0.00151
0.00104
0.00834
0.01129
0.01512
0.00873
0.01508
0.00877
0.00049
0.00669
0.00776
0.00055
0.00664
0.00763
0.00013
0.00463
0.00425
0.00013
0.00463
0.00425
-0.00019
-0.00145
-0.00196
-0.00020
-0.00132
-0.00210
0.00027
0.00235
0.00123
0.00018
0.00228
0.00125
-0.00157
-0.00306
-0.00231
-0.00153
-0.00310
-0.00234
0.00023
0.00050
-0.00103
0.00025
0.00052
-0.00105
-0.00490
-0.00161
-0.00510
-0.00157
-0.00036
-0.00035
0.00943
0.00950
-0.00060
0.00962
0.00913
-0.00060
0.00974
0.00911
0.00164
0.00090
0.01610
0.00958
0.00165
0.00094
0.01598
0.00958
0.00097
0.00917
0.01186
0.00098
0.00913
0.01185
0.00960
0.01001
0.00957
0.00997
0.00035
0.00750
0.00750
0.00042
0.00760
0.00747
0.00010
0.00507
0.00371
0.00005
0.00513
0.00371
-0.00013
-0.00140
-0.00247
-0.00000
-0.00140
-0.00249
0.00023
0.00214
0.00061
0.00026
0.00214
0.00043
-0.00133
-0.00348
-0.00283
-0.00130
-0.00357
-0.00274
0.00047
0.00026
-0.00197
0.00046
0.00016
-0.00188
-0.00029
-0.00037
0.00999
0.01008
-0.00045
0.00992
0.01010
-0.00538
-0.00255
-0.00556
-0.00258
0.00129
0.00071
0.01016
0.01575
0.00116
0.00082
0.01019
0.01587
-0.00020
0.01148
0.01009
-0.00017
0.01155
0.01012
0.00070
0.00973
0.01202
0.00068
0.00973
0.01204
0.00989
0.01364
0.00978
0.01364
0.00028
0.00722
0.00778
0.00028
0.00739
0.00776
-0.00003
0.00491
0.00310
0.00008
0.00480
0.00310
0.00019
-0.00191
-0.00341
0.00029
-0.00176
-0.00341
0.00025
0.00171
-0.00057
0.00026
0.00163
-0.00046
-0.00018
-0.00389
-0.00461
-0.00008
-0.00395
-0.00469
0.00072
-0.00038
-0.00312
0.00064
-0.00050
-0.00304
-0.00013
-0.00013
0.01050
0.01059
0.00018
0.00199
0.01013
0.01234
0.00021
0.00196
0.01019
0.01231
0.01031
0.01280
0.01027
0.01275
0.00213
0.01015
0.01369
0.00214
0.01020
0.01369
0.00112
0.01005
0.01605
0.00110
0.00995
0.01607
0.00052
0.00018
0.00717
0.00659
0.00061
0.00026
0.00717
0.00648
0.00982
0.01210
0.00984
0.01202
0.00002
0.00397
0.00222
-0.00003
0.00402
0.00222
-0.00515
-0.00413
-0.00520
-0.00423
-0.00203
0.00049
-0.00508
-0.00205
0.00058
-0.00499
0.00023
0.00094
-0.00128
0.00029
0.00089
-0.00124
-0.00051
-0.00079
-0.00367
-0.00055
-0.00080
-0.00373
0.00014
-0.00300
-0.00622
0.00035
-0.00320
-0.00622
0.00013
0.00054
0.01335
0.01002
0.00045
0.01001
0.01336
0.00007
0.01371
0.01015
0.00001
0.01024
0.01365
0.00155
0.01280
0.01004
0.00167
0.01000
0.01275
0.00137
0.01412
0.00846
0.00140
0.00845
0.01406
0.00088
0.01615
0.01059
0.00071
0.01053
0.01616
0.00017
0.01117
0.00912
0.00028
0.00923
0.01109
0.00015
0.00586
0.00589
0.00019
0.00583
0.00582
-0.00002
0.00142
0.00264
-0.00001
0.00264
0.00142
-0.00371
-0.00496
-0.00376
-0.00496
-0.00137
-0.00172
-0.00552
-0.00164
-0.00142
-0.00552
-0.00070
-0.00001
-0.00142
-0.00002
-0.00073
-0.00142
-0.00142
-0.00376
-0.00622
-0.00073
-0.00164
-0.00373
-0.00006
-0.00002
0.00142
0.00009
0.00264
0.00582
0.00061
0.00583
0.01109
0.00127
0.00923
0.01616
0.00291
0.01053
0.01406
0.00246
0.00845
0.01275
0.00068
0.01000
0.01365
0.00077
0.01024
0.01336
0.00077
0.01001
0.01002
0.00068
0.01015
0.01335
0.00246
0.01004
0.01371
0.00291
0.00846
0.01280
0.00127
0.01059
0.01412
0.00061
0.00912
0.01615
0.00009
0.00589
0.01117
-0.00006
0.00264
0.00586
-0.00001
0.00142
-0.00070
-0.00172
-0.00367
-0.00137
-0.00371
-0.00622
-0.00001
-0.00080
-0.00124
-0.00002
-0.00079
-0.00128
-0.00320
-0.00055
-0.00499
-0.00300
-0.00051
-0.00508
0.00035
-0.00423
0.00014
-0.00413
0.00019
0.00089
0.00222
0.00015
0.00094
0.00222
0.00028
0.00402
0.00648
0.00017
0.00397
0.00659
0.00071
0.01202
0.00717
0.00088
0.01210
0.00717
0.00140
0.00984
0.01607
0.00137
0.00982
0.01605
0.00167
0.00995
0.01369
0.00155
0.01005
0.01369
0.00001
0.01020
0.01231
0.00007
0.01015
0.01234
0.00045
0.01275
0.01019
0.00054
0.01280
0.01013
0.00013
0.01027
0.01059
0.01031
0.01050
0.00058
-0.00520
-0.00469
0.00049
-0.00515
-0.00461
0.00029
-0.00205
-0.00304
0.00023
-0.00203
-0.00312
-0.00003
-0.00050
-0.00046
0.00002
-0.00038
-0.00057
0.00064
-0.00395
-0.00341
0.00072
-0.00389
-0.00341
-0.00008
-0.00258
-0.00018
-0.00255
0.00026
0.00163
0.00310
0.00018
0.00171
0.00310
0.00061
0.00110
0.00776
0.01204
0.00052
0.00112
0.00778
0.01202
0.00480
0.00739
0.00491
0.00722
0.00214
0.00973
0.01587
0.00213
0.00973
0.01575
0.00196
0.01364
0.01019
0.00199
0.01364
0.01016
0.00021
-0.00013
0.01012
0.01010
0.00018
-0.00013
0.01009
0.01008
0.00978
0.01155
0.00989
0.01148
0.00992
0.00999
0.00026
-0.00176
-0.00188
0.00025
-0.00191
-0.00197
0.00029
-0.00556
-0.00274
0.00019
-0.00538
-0.00283
0.00008
0.00016
0.00043
-0.00003
0.00026
0.00061
0.00046
-0.00357
-0.00249
0.00047
-0.00348
-0.00247
0.00028
0.00214
0.00371
0.00028
0.00214
0.00371
0.00068
0.00513
0.00747
0.00070
0.00507
0.00750
-0.00017
0.00082
0.00997
0.00958
-0.00020
0.00071
0.01001
0.00958
0.00116
0.00760
0.01185
0.00129
0.00750
0.01186
-0.00045
0.00957
0.00911
-0.00037
0.00960
0.00913
0.00913
0.01598
0.00917
0.01610
-0.00130
-0.00157
-0.00133
-0.00161
-0.00029
0.00974
0.00950
0.00962
0.00943
0.00026
-0.00140
-0.00105
0.00023
-0.00140
-0.00103
-0.00000
-0.00510
-0.00234
-0.00013
-0.00490
-0.00231
0.00005
0.00052
0.00125
0.00010
0.00050
0.00123
0.00025
-0.00310
-0.00210
0.00023
-0.00306
-0.00196
0.00042
0.00228
0.00425
0.00035
0.00235
0.00425
0.00098
0.00463
0.00763
0.00097
0.00463
0.00776
0.00094
-0.00060
0.00877
0.00833
0.00090
-0.00060
0.00873
0.00833
0.00165
0.00664
0.01129
0.00164
0.00669
0.01126
0.01508
0.00834
0.01512
0.00823
-0.00035
0.00889
0.00882
-0.00036
0.00888
0.00894
0.00895
0.00899
-0.00153
-0.00156
-0.00157
-0.00155
0.00018
-0.00132
-0.00040
0.00027
-0.00145
-0.00038
-0.00020
-0.00455
-0.00261
-0.00019
-0.00450
-0.00255
0.00013
0.00051
0.00187
0.00013
0.00053
0.00176
0.00014
-0.00326
-0.00160
0.00006
-0.00318
-0.00163
0.00055
0.00205
0.00448
0.00049
0.00211
0.00449
0.00104
0.00404
0.00718
0.00101
0.00401
0.00713
0.00151
0.00111
0.00693
0.01178
0.00158
0.00110
0.00696
0.01170
0.00559
0.01034
0.00565
0.01037
-0.00032
0.00800
0.00814
-0.00038
0.00814
0.00813
-0.00034
0.00838
0.00818
0.00836
0.00812
-0.00183
-0.00193
0.00017
-0.00137
-0.00015
0.00011
-0.00131
-0.00010
-0.00062
-0.00294
-0.00077
-0.00265
0.00026
0.00017
0.00177
0.00028
0.00021
0.00184
0.00049
0.00145
0.00430
0.00042
0.00153
0.00431
0.00080
0.00306
0.00677
0.00075
0.00315
0.00669
0.00014
0.00418
0.00898
0.00015
0.00415
0.00898
-0.00018
-0.00339
-0.00190
-0.00012
-0.00317
-0.00189
-0.00033
0.00705
0.00754
-0.00028
0.00697
0.00755
-0.00032
0.00802
0.00752
-0.00033
0.00794
0.00753
0.00766
0.00773
0.00012
-0.00153
-0.00037
0.00003
-0.00156
-0.00036
-0.00109
-0.00281
-0.00118
-0.00299
0.00037
-0.00046
0.00170
0.00027
-0.00039
0.00180
0.00034
0.00071
0.00364
0.00034
0.00071
0.00365
0.00142
0.00198
0.00523
0.00151
0.00198
0.00524
-0.00004
-0.00336
-0.00273
-0.00014
-0.00330
-0.00256
0.00030
0.00259
0.00804
0.00037
0.00250
0.00805
-0.00018
0.00716
0.00662
-0.00031
0.00714
0.00671
-0.00034
0.00722
0.00668
0.00723
0.00669
0.00002
-0.00258
-0.00068
0.00004
-0.00254
-0.00065
0.00018
-0.00092
0.00082
0.00017
-0.00100
0.00085
-0.00134
-0.00152
0.00054
-0.00000
0.00261
0.00054
-0.00000
0.00263
0.00016
0.00020
0.00427
0.00019
0.00018
0.00437
-0.00076
-0.00334
-0.00077
-0.00329
-0.00030
0.00410
0.00615
-0.00034
0.00414
0.00614
-0.00024
0.00598
0.00595
-0.00021
0.00590
0.00593
0.00572
0.00576
-0.00024
-0.00314
-0.00166
-0.00019
-0.00320
-0.00160
-0.00027
-0.00167
-0.00044
-0.00029
-0.00170
-0.00048
0.00094
-0.00100
0.00097
0.00084
-0.00092
0.00101
-0.00008
-0.00066
0.00375
-0.00015
-0.00061
0.00384
-0.00021
0.00492
0.00470
-0.00011
0.00494
0.00475
-0.00019
0.00481
0.00473
0.00481
0.00463
-0.00082
-0.00403
-0.00092
-0.00397
-0.00089
-0.00389
-0.00302
-0.00100
-0.00385
-0.00288
-0.00028
-0.00275
-0.00230
-0.00038
-0.00272
-0.00227
0.00010
-0.00077
-0.00239
0.00010
-0.00065
-0.00247
-0.00022
0.00164
0.00286
-0.00028
0.00168
0.00278
-0.00010
0.00333
0.00306
-0.00013
0.00332
0.00309
0.00319
0.00304
-0.00147
-0.00154
-0.00131
-0.00140
-0.00062
-0.00026
-0.00162
-0.00282
-0.00078
-0.00032
-0.00139
-0.00284
-0.00358
-0.00345
-0.00016
0.00098
0.00101
-0.00007
0.00104
0.00103
-0.00011
0.00124
0.00121
0.00117
0.00128
-0.00067
-0.00033
-0.00149
-0.00060
-0.00044
-0.00162
-0.00002
-0.00124
-0.00101
-0.00005
-0.00124
-0.00081
-0.00093
-0.00097
0.00006
-0.00003
0.00002
0.00012
0.00021
0.00137
0.00129
0.00020
0.00140
0.00129
0.00142
0.00101
0.00142
0.00095
0.00001
0.00001
0.00292
0.00289
-0.00020
0.00296
0.00279
-0.00024
0.00298
0.00278
-0.00032
-0.00019
0.00127
-0.00032
-0.00015
0.00129
0.00273
0.00215
0.00273
0.00217
0.00007
-0.00002
0.00415
0.00401
-0.00001
0.00415
0.00399
-0.00002
0.00421
0.00378
-0.00002
0.00421
0.00374
-0.00002
-0.00080
-0.00068
0.00173
0.00002
-0.00079
-0.00069
0.00171
0.00450
0.00396
0.00448
0.00393
-0.00095
-0.00119
0.00050
-0.00098
-0.00118
0.00050
-0.00204
-0.00072
-0.00204
-0.00067
0.00007
0.00005
0.00491
0.00488
0.00004
0.00505
0.00491
0.00004
0.00507
0.00491
0.00012
0.00532
0.00478
0.00015
0.00532
0.00476
0.00015
0.00402
0.00506
0.00018
0.00401
0.00504
-0.00049
0.00072
0.00334
-0.00050
0.00073
0.00332
-0.00059
0.00021
0.00179
-0.00058
0.00020
0.00180
-0.00085
0.00006
-0.00087
0.00005
0.00007
0.00004
0.00555
0.00572
0.00006
0.00555
0.00573
-0.00010
0.00571
0.00557
-0.00010
0.00573
0.00555
0.00013
0.00582
0.00787
0.00014
0.00584
0.00786
-0.00009
0.00214
0.00633
-0.00006
0.00214
0.00632
-0.00009
0.00213
0.00433
-0.00007
0.00213
0.00432
-0.00079
0.00126
0.00269
-0.00076
0.00126
0.00265
0.00007
0.00008
0.00618
0.00619
-0.00004
0.00675
0.00597
-0.00005
0.00674
0.00595
0.00058
0.00692
0.00561
0.00059
0.00692
0.00559
-0.00126
-0.00015
0.00069
-0.00131
-0.00016
0.00065
0.00112
0.00685
0.00891
0.00113
0.00685
0.00890
0.00046
0.00391
0.00734
0.00047
0.00391
0.00732
-0.00099
-0.00023
-0.00102
-0.00028
-0.00001
0.00262
0.00517
0.00002
0.00261
0.00516
-0.00037
0.00167
0.00301
-0.00035
0.00168
0.00299
-0.00004
-0.00005
0.00688
0.00667
-0.00007
0.00689
0.00665
-0.00010
0.00728
0.00627
-0.00009
0.00726
0.00627
0.00019
0.00734
0.01056
0.00020
0.00734
0.01058
-0.00107
0.00077
0.00122
-0.00108
0.00078
0.00122
0.00041
0.00605
0.01001
0.00043
0.00605
0.01000
0.00039
0.00510
0.00772
0.00039
0.00510
0.00771
0.00007
0.00350
0.00526
0.00009
0.00348
0.00526
-0.00058
-0.00043
-0.00055
-0.00036
-0.00044
0.00247
0.00297
-0.00041
0.00246
0.00298
-0.00010
-0.00009
0.00746
0.00745
-0.00015
0.00766
0.00712
-0.00014
0.00766
0.00714
0.00124
0.00779
0.00673
0.00124
0.00782
0.00675
-0.00112
0.00119
0.00111
-0.00110
0.00119
0.00109
0.00124
0.01387
0.00850
0.00123
0.01387
0.00851
0.00070
0.00715
0.01072
0.00072
0.00715
0.01071
0.00040
0.00610
0.00780
0.00042
0.00609
0.00780
0.00002
0.00417
0.00495
0.00002
0.00415
0.00492
-0.00201
-0.00055
-0.00033
-0.00198
-0.00053
-0.00032
-0.00025
0.00294
0.00249
-0.00024
0.00292
0.00247
-0.00173
-0.00025
-0.00173
-0.00024
-0.00013
-0.00017
0.00825
0.00810
-0.00016
0.00826
0.00813
-0.00009
0.00833
0.00770
-0.00009
0.00834
0.00769
0.00047
0.00123
0.00924
0.01435
0.00047
0.00124
0.00922
0.01433
0.01343
0.00833
0.01341
0.00832
0.00073
0.00809
0.01091
0.00075
0.00809
0.01093
0.00030
0.00683
0.00755
0.00030
0.00684
0.00754
-0.00064
0.00147
0.00061
-0.00059
0.00144
0.00061
0.00007
0.00461
0.00427
0.00010
0.00462
0.00427
-0.00170
-0.00007
-0.00027
-0.00168
-0.00008
-0.00028
-0.00002
0.00312
0.00163
-0.00001
0.00311
0.00162
-0.00185
-0.00031
-0.00185
-0.00035
-0.00012
-0.00012
0.00880
0.00879
-0.00012
0.00910
0.00846
-0.00011
0.00907
0.00844
0.00215
0.00214
0.01780
0.00922
0.00214
0.00214
0.01781
0.00922
0.00134
0.00960
0.01482
0.00136
0.00962
0.01482
0.00919
0.00911
0.00920
0.00910
0.00075
0.00905
0.01068
0.00074
0.00904
0.01067
0.00021
0.00751
0.00689
0.00023
0.00750
0.00689
-0.00041
0.00149
-0.00005
-0.00039
0.00148
-0.00006
0.00008
0.00449
0.00326
0.00010
0.00448
0.00328
-0.00149
-0.00029
-0.00052
-0.00148
-0.00030
-0.00055
0.00016
0.00283
0.00057
0.00016
0.00283
0.00056
-0.00002
-0.00008
0.00966
0.00958
-0.00008
0.00966
0.00958
-0.00215
-0.00020
-0.00215
-0.00020
0.00217
0.00156
0.00944
0.01729
0.00218
0.00155
0.00942
0.01727
0.00015
0.01084
0.00970
0.00016
0.01084
0.00969
0.00124
0.01032
0.01488
0.00125
0.01032
0.01488
0.00944
0.01346
0.00946
0.01347
0.00072
0.01035
0.00943
0.00072
0.01033
0.00941
0.00010
0.00734
0.00594
0.00012
0.00732
0.00594
-0.00007
0.00103
-0.00084
-0.00007
0.00099
-0.00084
0.00017
0.00401
0.00227
0.00018
0.00400
0.00226
-0.00068
-0.00087
-0.00144
-0.00066
-0.00089
-0.00142
0.00050
0.00216
-0.00042
0.00050
0.00216
-0.00042
0.00017
0.00015
0.01011
0.01011
0.00055
0.00302
0.01007
0.01187
0.00055
0.00304
0.01007
0.01186
0.01003
0.01229
0.01003
0.01230
0.00357
0.00992
0.01268
0.00357
0.00991
0.01266
0.00216
0.00977
0.01707
0.00216
0.00978
0.01707
0.00115
0.00063
0.00914
0.00971
0.00114
0.00063
0.00914
0.00971
0.01067
0.01490
0.01069
0.01491
0.00008
0.00654
0.00499
0.00011
0.00651
0.00499
-0.00230
0.00009
-0.00230
0.00012
0.00028
0.00067
-0.00216
0.00026
0.00069
-0.00214
0.00036
0.00286
0.00139
0.00034
0.00285
0.00139
0.00029
0.00108
-0.00092
0.00031
0.00107
-0.00089
0.00000
-0.00112
-0.00330
0.00001
-0.00113
-0.00328
0.00042
0.00065
0.01314
0.00994
0.00065
0.00994
0.01314
0.00040
0.01323
0.01008
0.00041
0.01008
0.01321
0.00259
0.01325
0.00998
0.00256
0.00999
0.01323
0.00306
0.01270
0.01028
0.00306
0.01027
0.01271
0.00178
0.01751
0.01056
0.00180
0.01057
0.01752
0.00095
0.01417
0.01062
0.00094
0.01064
0.01417
0.00040
0.00893
0.00799
0.00040
0.00802
0.00893
0.00026
0.00423
0.00500
0.00027
0.00500
0.00423
-0.00154
0.00033
-0.00157
0.00033
-0.00009
-0.00006
-0.00275
-0.00008
-0.00006
-0.00275
0.00026
0.00133
0.00154
0.00132
0.00027
0.00154
-0.00006
-0.00157
-0.00328
0.00027
-0.00008
-0.00089
0.00011
0.00132
0.00423
0.00055
0.00500
0.00893
0.00141
0.00802
0.01417
0.00240
0.01064
0.01752
0.00211
0.01057
0.01271
0.00018
0.01027
0.01323
0.00054
0.00999
0.01321
0.00087
0.01008
0.01314
0.00087
0.00994
0.00994
0.00054
0.01008
0.01314
0.00018
0.00998
0.01323
0.00211
0.01028
0.01325
0.00240
0.01056
0.01270
0.00141
0.01062
0.01751
0.00055
0.00799
0.01417
0.00011
0.00500
0.00893
0.00133
0.00423
0.00026
-0.00006
-0.00092
-0.00009
-0.00154
-0.00330
0.00027
0.00107
0.00139
0.00026
0.00108
0.00139
-0.00113
0.00031
-0.00214
-0.00112
0.00029
-0.00216
0.00001
0.00012
0.00000
0.00009
0.00040
0.00285
0.00499
0.00040
0.00286
0.00499
0.00094
0.00651
0.00971
0.00095
0.00654
0.00971
0.00180
0.01491
0.00914
0.00178
0.01490
0.00914
0.00306
0.01069
0.01707
0.00306
0.01067
0.01707
0.00256
0.00978
0.01266
0.00259
0.00977
0.01268
0.00041
0.00991
0.01186
0.00040
0.00992
0.01187
0.00065
0.01230
0.01007
0.00065
0.01229
0.01007
0.00042
0.01003
0.01011
0.01003
0.01011
0.00069
-0.00230
-0.00142
0.00067
-0.00230
-0.00144
0.00034
0.00026
-0.00042
0.00036
0.00028
-0.00042
0.00011
0.00216
0.00226
0.00008
0.00216
0.00227
0.00050
-0.00089
-0.00084
0.00050
-0.00087
-0.00084
-0.00066
-0.00020
-0.00068
-0.00020
0.00063
0.00400
0.00594
0.00063
0.00401
0.00594
0.00114
0.00216
0.00941
0.01488
0.00115
0.00216
0.00943
0.01488
0.00732
0.01033
0.00734
0.01035
0.00357
0.01032
0.01727
0.00357
0.01032
0.01729
0.00304
0.01347
0.00942
0.00302
0.01346
0.00944
0.00055
0.00015
0.00969
0.00958
0.00055
0.00017
0.00970
0.00958
0.00946
0.01084
0.00944
0.01084
0.00966
0.00966
0.00018
0.00099
0.00056
0.00017
0.00103
0.00057
-0.00007
-0.00215
-0.00055
-0.00007
-0.00215
-0.00052
0.00012
0.00283
0.00328
0.00010
0.00283
0.00326
0.00016
-0.00030
-0.00006
0.00016
-0.00029
-0.00005
0.00072
0.00448
0.00689
0.00072
0.00449
0.00689
0.00125
0.00750
0.01067
0.00124
0.00751
0.01068
0.00016
0.00155
0.00910
0.00922
0.00015
0.00156
0.00911
0.00922
0.00218
0.00904
0.01482
0.00217
0.00905
0.01482
-0.00008
0.00920
0.00844
-0.00008
0.00919
0.00846
0.00962
0.01781
0.00960
0.01780
-0.00148
-0.00035
-0.00149
-0.00031
-0.00002
0.00907
0.00879
0.00910
0.00880
0.00010
0.00148
0.00162
0.00008
0.00149
0.00163
-0.00039
-0.00185
-0.00028
-0.00041
-0.00185
-0.00027
0.00023
0.00311
0.00427
0.00021
0.00312
0.00427
-0.00001
-0.00008
0.00061
-0.00002
-0.00007
0.00061
0.00074
0.00462
0.00754
0.00075
0.00461
0.00755
0.00136
0.00684
0.01093
0.00134
0.00683
0.01091
0.00214
-0.00011
0.00832
0.00769
0.00214
-0.00012
0.00833
0.00770
0.00214
0.00809
0.01433
0.00215
0.00809
0.01435
0.01341
0.00922
0.01343
0.00924
-0.00012
0.00834
0.00813
-0.00012
0.00833
0.00810
0.00826
0.00825
-0.00168
-0.00024
-0.00170
-0.00025
0.00010
0.00144
0.00247
0.00007
0.00147
0.00249
-0.00059
-0.00173
-0.00032
-0.00064
-0.00173
-0.00033
0.00030
0.00292
0.00492
0.00030
0.00294
0.00495
-0.00024
-0.00053
0.00109
-0.00025
-0.00055
0.00111
0.00075
0.00415
0.00780
0.00073
0.00417
0.00780
0.00124
0.00609
0.01071
0.00123
0.00610
0.01072
0.00047
-0.00009
0.00851
0.00675
0.00047
-0.00009
0.00850
0.00673
0.00715
0.01387
0.00715
0.01387
-0.00016
0.00782
0.00714
-0.00017
0.00779
0.00712
-0.00013
0.00766
0.00745
0.00766
0.00746
-0.00198
-0.00201
0.00002
0.00119
0.00298
0.00002
0.00119
0.00297
-0.00110
-0.00036
-0.00112
-0.00043
0.00042
0.00246
0.00526
0.00040
0.00247
0.00526
0.00072
0.00348
0.00771
0.00070
0.00350
0.00772
0.00123
0.00510
0.01000
0.00124
0.00510
0.01001
0.00124
0.00605
0.01058
0.00124
0.00605
0.01056
-0.00041
-0.00055
0.00122
-0.00044
-0.00058
0.00122
-0.00014
0.00734
0.00627
-0.00015
0.00734
0.00627
-0.00009
0.00726
0.00665
-0.00010
0.00728
0.00667
0.00689
0.00688
0.00009
0.00078
0.00299
0.00007
0.00077
0.00301
-0.00108