# vtk DataFile Version 3.0
Point representing Sub_cellular elem model
ASCII

DATASET UNSTRUCTURED_GRID
POINTS 3657 float
-52.91358 -3.03083 53.21983 
-52.88772 3.26038 53.25853 
-52.52031 -9.28026 52.84773 
-52.50799 9.55876 52.92537 
-49.71842 0.06195 57.07881 
-49.40038 -6.10197 56.77925 
-49.42789 6.24927 56.76337 
-49.85816 -16.93235 53.28840 
-49.72839 17.08786 53.37946 
-49.14413 -12.13932 56.26192 
-49.00746 12.34597 56.39874 
-45.92269 -3.02747 60.00368 
-45.95079 3.12375 59.99607 
-45.66430 -9.17256 59.70529 
-45.64847 9.20596 59.73900 
-46.16629 -19.98621 56.62935 
-46.07948 20.13437 56.66694 
-45.43584 -15.00308 58.77946 
-45.34691 15.07221 58.87327 
-46.83270 -24.45944 53.15656 
-46.75155 24.82913 53.45102 
-46.91633 -29.24938 49.81383 
-46.75594 29.61780 50.02052 
-42.41454 -0.00406 62.75880 
-42.35173 -6.13423 62.75064 
-42.33760 6.14482 62.77580 
-41.90106 -12.00675 62.11663 
-41.86238 12.04881 62.20294 
-41.76296 -17.91882 61.27719 
-41.71107 17.93196 61.36605 
-42.40354 -22.88705 58.80368 
-42.32770 23.00147 58.93758 
-43.16685 -27.79472 56.23568 
-43.02966 28.02860 56.39077 
-42.52852 -33.33883 53.37824 
-42.25804 33.62032 53.42537 
-38.75462 -3.02946 65.13698 
-38.72007 3.06975 65.16346 
-38.45378 -8.98060 64.88189 
-38.42364 8.95468 64.88565 
-38.03759 -14.68847 64.30583 
-38.01654 14.70886 64.35052 
-37.88791 -20.49004 63.11998 
-37.85616 20.57622 63.18083 
-38.59398 -25.51503 61.00998 
-38.47145 25.64701 61.13279 
-38.23596 -31.10897 58.71300 
-38.10250 31.23159 58.87044 
-35.29607 0.01257 67.48514 
-35.05165 -5.86249 67.20818 
-34.97453 5.86526 67.25335 
-34.57943 -11.74377 67.07415 
-34.57636 11.76116 67.09634 
-37.56585 -36.59237 56.03939 
-37.40062 36.76402 56.33744 
-34.22053 -17.45613 66.15298 
-34.24057 17.44970 66.18892 
-34.13872 -23.10585 64.95965 
-34.07732 23.12016 65.05509 
-36.96370 -41.31863 51.83003 
-36.80881 41.67469 52.18739 
-33.81142 -28.59902 62.98579 
-33.66174 28.65289 63.14438 
-33.31862 -34.23970 60.85901 
-33.16484 34.27910 61.04061 
-30.84825 -3.12090 69.58865 
-30.80725 3.06989 69.61466 
-30.41113 -8.99589 69.33899 
-30.42148 9.02461 69.38814 
-29.82081 -14.71411 68.90802 
-29.79891 14.69290 68.95044 
-32.50040 -39.56886 57.62123 
-32.37280 39.66896 57.78900 
-29.62308 -20.47567 67.88538 
-29.60579 20.40530 67.95034 
-30.15381 -25.51150 66.13095 
-30.06290 25.47354 66.25290 
-29.64341 -31.07306 64.18394 
-29.53147 31.09993 64.30133 
-31.86046 -44.60707 54.06594 
-31.46365 44.84126 54.37549 
-29.06583 -36.56197 61.70594 
-28.89534 36.63704 61.80599 
-26.33230 -0.01180 71.61569 
-26.33951 -6.24092 71.62308 
-26.31152 6.22163 71.64418 
-25.58641 -12.18477 71.11892 
-25.51208 12.12491 71.13323 
-28.17682 -41.92173 58.63248 
-28.02632 41.97652 58.78283 
-25.29635 -17.87423 70.49848 
-25.24935 17.80046 70.56283 
-25.63918 -22.87692 68.96175 
-25.58505 22.85417 69.03618 
-26.10206 -27.95653 67.31196 
-26.03642 27.97996 67.38796 
-25.45913 -33.41918 65.04108 
-25.39110 33.45788 65.15942 
-27.15688 -47.07029 54.77246 
-26.90588 47.18466 54.83253 
-24.75233 -38.95916 62.59038 
-24.61218 39.02634 62.68931 
-26.33687 -51.10659 49.53948 
-26.00484 51.39894 49.70964 
-21.82479 -3.14354 73.30662 
-21.75996 3.12598 73.28811 
-21.50112 -9.30909 72.96129 
-21.48982 9.33224 72.97089 
-21.29154 -20.15272 71.30452 
-21.27953 20.14277 71.37013 
-20.96379 -15.05278 72.38821 
-20.88359 15.07449 72.43527 
-21.65024 -25.24658 69.80323 
-21.56193 25.25058 69.84241 
-21.91697 -30.22364 67.87457 
-21.85665 30.27575 67.92547 
-23.60445 -44.31318 59.14213 
-23.44295 44.41991 59.20858 
-21.22272 -35.68036 65.58420 
-21.08448 35.74520 65.65501 
-22.58311 -49.56530 54.96223 
-22.35421 49.67282 55.08234 
-20.16031 -41.20125 62.69787 
-20.00325 41.22571 62.80802 
-21.29025 -53.80016 49.84537 
-20.92409 53.97669 50.02664 
-17.31703 -0.01463 74.90849 
-17.11972 -6.22215 74.55674 
-17.14006 6.19509 74.55426 
-17.07021 -17.45255 73.18024 
-16.98368 17.44017 73.22644 
-17.33443 -22.57470 72.07645 
-17.29193 22.56491 72.11778 
-16.90638 -12.35200 74.15417 
-16.84343 12.30877 74.18591 
-17.50426 -27.54809 70.30528 
-17.48243 27.54715 70.34996 
-17.76175 -32.50609 68.36985 
-17.69720 32.55335 68.41285 
-18.94500 -46.55557 59.17075 
-18.83571 46.58224 59.26094 
-16.72454 -37.93408 65.74773 
-16.54673 37.95686 65.82880 
-17.68867 -51.52732 54.88315 
-17.46642 51.62525 54.96745 
-15.50713 -43.43828 62.90541 
-15.36849 43.48436 62.96407 
-12.85787 -3.17463 75.71217 
-12.81807 3.14851 75.75850 
-16.21533 -55.91627 49.85716 
-15.83555 56.10101 50.06761 
-12.93041 -19.77764 73.73039 
-12.90472 19.77955 73.75103 
-12.67173 -9.41845 75.34539 
-12.66649 9.34113 75.35278 
-13.07382 -24.82482 72.29865 
-13.00898 24.78133 72.34439 
-12.68247 -14.66916 74.71768 
-12.62099 14.61304 74.74851 
-13.16193 -29.82702 70.48076 
-13.12962 29.77703 70.54202 
-13.51891 -34.56527 68.25781 
-13.40791 34.53720 68.33379 
-14.15228 -48.55628 59.11725 
-14.06343 48.60366 59.16759 
-12.23958 -39.98014 65.61084 
-12.17445 40.00403 65.60619 
-12.90866 -53.55125 54.87366 
-12.62259 53.63984 54.92925 
-10.96418 -45.30699 62.36406 
-10.75259 45.36519 62.45952 
-8.53841 -0.00277 76.51998 
-8.47445 -11.68226 75.84015 
-8.44753 11.67492 75.82605 
-8.48511 -6.35035 76.47906 
-8.42486 6.33549 76.49121 
-8.59408 -16.85369 75.19164 
-8.55292 16.84911 75.20834 
-8.73618 -21.90269 73.88982 
-8.64139 21.91184 73.91318 
-8.88510 -31.74806 70.35369 
-8.79721 31.80552 70.39598 
-8.72477 -27.00651 72.44107 
-8.66438 27.00186 72.46592 
-9.09559 -36.57659 68.19236 
-9.03480 36.65836 68.18656 
-10.22888 -57.15520 51.03272 
-9.81657 57.18020 51.00753 
-9.53133 -50.43835 58.62064 
-9.41388 50.43814 58.69311 
-7.77783 -41.87480 65.14853 
-7.64772 41.92504 65.16429 
-6.32001 -47.15955 62.06232 
-6.07765 47.23496 62.06116 
-6.65544 -54.07970 55.59480 
-6.42539 54.07982 55.65555 
-4.19412 -3.17293 76.97425 
-4.14445 3.20396 76.98154 
-4.24866 -8.58797 76.59786 
-4.20703 8.57930 76.60193 
-4.25467 -13.91205 75.98256 
-4.21943 13.88382 76.01720 
-4.35341 -18.94947 75.10526 
-4.31551 18.97519 75.10614 
-4.35929 -23.93212 73.78404 
-4.26043 23.97367 73.78194 
-4.37265 -28.78828 72.07897 
-4.33962 28.74408 72.07767 
-4.49200 -33.54714 69.97819 
-4.44309 33.56994 69.98446 
-4.61967 -38.33321 67.56109 
-4.53473 38.38107 67.55498 
-3.61231 -57.55734 52.01331 
-3.27352 57.58088 51.99336 
-3.31556 -50.74861 59.26405 
-3.12510 50.78461 59.19874 
-3.10297 -43.57821 64.57258 
-2.93381 43.60609 64.57440 
-0.11180 -54.35326 56.26585 
-0.09747 -47.28758 62.08276 
-0.05787 -39.99959 66.95532 
-0.01813 -35.22000 69.34949 
0.00625 -30.47810 71.65453 
-0.05682 -25.58526 73.37572 
-0.01433 -20.85734 74.91229 
-0.00472 -15.86845 75.84514 
-0.00545 -10.75598 76.66843 
-0.04363 -5.34943 77.02036 
0.00000 -0.00000 77.31807 
0.04363 5.34943 77.02036 
0.00545 10.75598 76.66843 
0.00472 15.86845 75.84514 
0.01433 20.85734 74.91229 
0.05682 25.58526 73.37572 
-0.00625 30.47810 71.65453 
0.01813 35.22000 69.34949 
0.05787 39.99959 66.95532 
0.09747 47.28758 62.08276 
0.11180 54.35326 56.26585 
2.93381 -43.60609 64.57440 
3.10297 43.57821 64.57258 
3.12510 -50.78461 59.19874 
3.31556 50.74861 59.26405 
3.27352 -57.58088 51.99336 
3.61231 57.55734 52.01331 
4.53473 -38.38107 67.55498 
4.61967 38.33321 67.56109 
4.44309 -33.56994 69.98446 
4.49200 33.54714 69.97819 
4.33962 -28.74408 72.07767 
4.37265 28.78828 72.07897 
4.26043 -23.97367 73.78194 
4.35929 23.93212 73.78404 
4.31551 -18.97519 75.10614 
4.35341 18.94947 75.10526 
4.21943 -13.88382 76.01720 
4.25467 13.91205 75.98256 
4.20703 -8.57930 76.60193 
4.24866 8.58797 76.59786 
4.14445 -3.20396 76.98154 
4.19412 3.17293 76.97425 
6.42539 -54.07982 55.65555 
6.65544 54.07970 55.59480 
6.07765 -47.23496 62.06116 
6.32001 47.15955 62.06232 
7.64772 -41.92504 65.16429 
7.77783 41.87480 65.14853 
9.41388 -50.43814 58.69311 
9.53133 50.43835 58.62064 
9.81657 -57.18020 51.00753 
10.22888 57.15520 51.03272 
9.03480 -36.65836 68.18656 
9.09559 36.57659 68.19236 
8.66438 -27.00186 72.46592 
8.72477 27.00651 72.44107 
8.79721 -31.80552 70.39598 
8.88510 31.74806 70.35369 
8.64139 -21.91184 73.91318 
8.73618 21.90269 73.88982 
8.55292 -16.84911 75.20834 
8.59408 16.85369 75.19164 
8.42486 -6.33549 76.49121 
8.48511 6.35035 76.47906 
8.44753 -11.67492 75.82605 
8.47445 11.68226 75.84015 
8.53841 0.00277 76.51998 
10.75259 -45.36519 62.45952 
10.96418 45.30699 62.36406 
12.62259 -53.63984 54.92925 
12.90866 53.55125 54.87366 
12.17445 -40.00403 65.60619 
12.23958 39.98014 65.61084 
14.06343 -48.60366 59.16759 
14.15228 48.55628 59.11725 
13.40791 -34.53720 68.33379 
13.51891 34.56527 68.25781 
13.12962 -29.77703 70.54202 
13.16193 29.82702 70.48076 
12.62099 -14.61304 74.74851 
12.68247 14.66916 74.71768 
13.00898 -24.78133 72.34439 
13.07382 24.82482 72.29865 
12.66649 -9.34113 75.35278 
12.67173 9.41845 75.34539 
12.90472 -19.77955 73.75103 
12.93041 19.77764 73.73039 
15.83555 -56.10101 50.06761 
16.21533 55.91627 49.85716 
12.81807 -3.14851 75.75850 
12.85787 3.17463 75.71217 
15.36849 -43.48436 62.96407 
15.50713 43.43828 62.90541 
17.46642 -51.62525 54.96745 
17.68867 51.52732 54.88315 
16.54673 -37.95686 65.82880 
16.72454 37.93408 65.74773 
18.83571 -46.58224 59.26094 
18.94500 46.55557 59.17075 
17.69720 -32.55335 68.41285 
17.76175 32.50609 68.36985 
17.48243 -27.54715 70.34996 
17.50426 27.54809 70.30528 
16.84343 -12.30877 74.18591 
16.90638 12.35200 74.15417 
17.29193 -22.56491 72.11778 
17.33443 22.57470 72.07645 
16.98368 -17.44017 73.22644 
17.07021 17.45255 73.18024 
17.14006 -6.19509 74.55426 
17.11972 6.22215 74.55674 
17.31703 0.01463 74.90849 
20.92409 -53.97669 50.02664 
21.29025 53.80016 49.84537 
20.00325 -41.22571 62.80802 
20.16031 41.20125 62.69787 
22.35421 -49.67282 55.08234 
22.58311 49.56530 54.96223 
21.08448 -35.74520 65.65501 
21.22272 35.68036 65.58420 
23.44295 -44.41991 59.20858 
23.60445 44.31318 59.14213 
21.85665 -30.27575 67.92547 
21.91697 30.22364 67.87457 
21.56193 -25.25058 69.84241 
[...]
CELL_DATA 40900
SCALARS Strain double 1
LOOKUP_TABLE default
0.01140
0.00775
-0.06286
-0.05048
0.00882
-0.06230
-0.05404
-0.07784
-0.06634
-0.07597
-0.06346
0.01107
0.01148
0.01083
0.01048
0.01236
0.01017
0.00493
0.01476
0.01077
0.00522
-0.02992
-0.10705
-0.13672
-0.03199
-0.10922
-0.13653
-0.00055
-0.02390
-0.00189
-0.02865
0.00618
0.00860
0.07420
0.06978
0.00649
0.07561
0.07133
0.00318
0.07953
0.05936
0.00382
0.07919
0.06298
-0.02367
-0.06542
-0.10544
-0.04844
-0.02150
-0.05751
-0.10393
-0.05025
0.00912
-0.01100
0.00766
-0.01248
-0.06684
-0.13199
-0.08815
-0.06645
-0.13197
-0.09250
-0.16176
-0.11485
-0.16182
-0.11743
0.00180
0.00310
0.11932
0.12163
0.00282
0.12147
0.10510
0.00362
0.12154
0.10418
0.00702
0.12681
0.11139
0.00522
0.12185
0.11082
-0.02822
-0.04357
0.06448
-0.02554
-0.04450
0.06593
-0.03928
-0.06809
-0.00437
-0.03569
-0.06926
-0.00201
-0.03903
-0.09940
-0.04437
-0.03681
-0.09824
-0.04598
-0.13330
-0.08331
-0.13210
-0.08729
-0.00256
0.00168
0.16761
0.15265
-0.00068
0.16493
0.15459
0.01464
0.16316
0.14920
0.01570
0.16623
0.15091
0.01768
0.11016
0.15181
0.01910
0.10848
0.15060
-0.01702
-0.01576
0.09346
-0.01576
-0.01624
0.09336
-0.01288
-0.03843
0.04516
-0.01327
-0.03928
0.04506
-0.03002
-0.06728
-0.00953
-0.02861
-0.06566
-0.00961
-0.00382
-0.00469
0.19449
0.19760
-0.00036
0.24108
0.18649
0.00020
0.23790
0.18593
0.01986
0.22679
0.28171
0.01873
0.22886
0.28359
-0.07349
-0.10722
-0.04011
-0.06828
-0.10671
-0.04129
0.01874
0.06742
0.21474
0.02013
0.06907
0.21569
0.00418
0.04338
0.16179
0.00585
0.04205
0.16257
-0.14361
-0.07673
-0.14418
-0.07402
-0.00786
-0.01124
0.08859
-0.00908
-0.01147
0.08841
-0.03204
-0.03747
0.03214
-0.03111
-0.03837
0.03636
-0.00486
-0.00583
0.24520
0.23776
-0.00267
0.24332
0.23673
0.03296
0.29197
0.20330
0.03231
0.28800
0.20294
0.04465
0.26314
0.34211
0.04321
0.26201
0.34434
-0.05901
-0.08207
-0.02216
-0.05234
-0.08012
-0.02162
0.00991
0.13337
0.27486
0.01003
0.13454
0.27582
0.00948
0.08807
0.16987
0.01119
0.08676
0.16979
-0.01124
0.01278
0.10022
-0.00960
0.01170
0.09773
-0.12313
-0.04358
-0.12666
-0.05083
-0.02522
-0.02117
0.03163
-0.02699
-0.02332
0.03016
-0.00349
-0.00339
0.26685
0.26727
-0.00289
0.27343
0.23966
-0.00433
0.27057
0.23784
0.02677
0.30617
0.46484
0.02592
0.30820
0.46140
-0.05720
-0.07162
-0.00552
-0.05511
-0.07174
-0.00171
0.03883
0.45913
0.23780
0.03977
0.45198
0.24225
0.01397
0.18878
0.29494
0.01476
0.18686
0.29839
0.01016
0.12562
0.20242
0.00856
0.12787
0.20272
-0.00784
0.03990
0.09976
-0.00675
0.03990
0.10533
-0.10607
-0.11945
-0.03095
-0.10216
-0.12098
-0.03195
-0.02572
-0.00333
0.04066
-0.02453
-0.00256
0.04175
-0.16077
-0.02703
-0.16240
-0.02986
-0.00217
-0.00206
0.31987
0.29790
-0.00057
0.31849
0.29640
0.04747
0.31954
0.28358
0.04855
0.31553
0.28945
0.05973
0.03963
0.32434
0.45960
0.05642
0.04092
0.32752
0.46324
0.65740
0.35640
0.66220
0.35020
0.02151
0.24880
0.31634
0.02188
0.24615
0.31154
0.00837
0.15840
0.17691
0.00870
0.15710
0.17738
-0.04882
-0.06260
-0.01010
-0.04936
-0.05967
-0.01295
-0.00226
0.05124
0.08568
-0.00412
0.04891
0.08729
-0.09751
-0.11193
-0.02826
-0.09507
-0.11234
-0.02795
-0.01667
-0.00054
0.00991
-0.01746
0.00028
0.01054
-0.15955
-0.02431
-0.16288
-0.02368
0.00028
0.00032
0.30278
0.30853
-0.00273
0.33715
0.29310
-0.00337
0.34507
0.29733
0.05941
0.04606
0.72834
0.40094
0.05923
0.04677
0.71860
0.39449
0.04719
0.38774
0.51677
0.04652
0.38614
0.52123
0.35151
0.35554
0.34389
0.35612
0.01812
0.29718
0.30887
0.01928
0.29856
0.31092
0.00903
0.18706
0.17635
0.00830
0.18568
0.17916
-0.04538
-0.06286
-0.02587
-0.04264
-0.06206
-0.02537
-0.00083
0.05467
0.06617
-0.00120
0.05369
0.06384
-0.09252
-0.11758
-0.04482
-0.09020
-0.11845
-0.04207
-0.01129
0.00401
-0.00481
-0.01172
0.00396
-0.00291
0.00091
0.00041
0.34797
0.34273
-0.00131
0.34312
0.34162
-0.16625
-0.07100
-0.16980
-0.06972
0.06632
0.04528
0.42902
0.74142
0.06303
0.04794
0.42974
0.74872
-0.00135
0.44152
0.37543
-0.00094
0.43589
0.38473
0.04149
0.41255
0.50386
0.04073
0.41788
0.50043
0.38811
0.63950
0.38544
0.63047
0.01974
0.30503
0.30774
0.01910
0.30275
0.31146
0.00568
0.18428
0.14270
0.00727
0.18440
0.14028
-0.03633
-0.05971
-0.04934
-0.03291
-0.05702
-0.04968
0.00087
0.04577
0.03127
0.00135
0.04536
0.03331
-0.04191
-0.11984
-0.11171
-0.03877
-0.11905
-0.11393
0.00230
-0.01004
-0.04526
0.00017
-0.01090
-0.04310
-0.00001
0.00014
0.36345
0.36605
-0.00040
0.06124
0.37559
0.50656
0.00064
0.05930
0.37798
0.51342
0.36630
0.50277
0.36834
0.49911
0.09587
0.41102
0.63317
0.09573
0.41052
0.63072
0.05738
0.44915
0.71874
0.05699
0.44412
0.71470
0.03590
0.00887
0.28549
0.27857
0.03651
0.00958
0.27862
0.27824
0.39862
0.52785
0.40409
0.53066
0.00277
0.15549
0.11909
0.00119
0.15586
0.12022
-0.16002
-0.13028
-0.15956
-0.13245
-0.06705
0.00152
-0.11638
-0.06804
0.00231
-0.11327
0.00551
0.03519
0.00520
0.00656
0.03431
0.00635
-0.01254
-0.01632
-0.07917
-0.01307
-0.01529
-0.08055
-0.01435
-0.09948
-0.15537
-0.01058
-0.10192
-0.15585
-0.00058
0.00380
0.55672
0.36383
0.00193
0.35764
0.56422
-0.00029
0.56696
0.36236
-0.00141
0.36770
0.56100
0.05919
0.58735
0.37134
0.06294
0.37105
0.58426
0.08741
0.63836
0.33974
0.08824
0.33777
0.64051
0.05568
0.76395
0.44886
0.05256
0.43849
0.77533
0.01871
0.47957
0.35825
0.02022
0.36677
0.47333
0.00466
0.24654
0.23532
0.00530
0.23133
0.24677
0.00201
0.08149
0.11272
0.00184
0.11146
0.08218
-0.12368
-0.15364
-0.12252
-0.15364
-0.04618
-0.04923
-0.12948
-0.04671
-0.04957
-0.12948
-0.00966
0.00850
-0.01723
0.00838
-0.01088
-0.01723
-0.04957
-0.12252
-0.15585
-0.01088
-0.04671
-0.08055
-0.00342
0.00838
0.08218
0.01245
0.11146
0.24677
0.03762
0.23133
0.47333
0.08146
0.36677
0.77533
0.10058
0.43849
0.64051
0.08446
0.33777
0.58426
0.00243
0.37105
0.56100
-0.00043
0.36770
0.56422
-0.00043
0.35764
0.36383
0.00243
0.36236
0.55672
0.08446
0.37134
0.56696
0.10058
0.33974
0.58735
0.08146
0.44886
0.63836
0.03762
0.35825
0.76395
0.01245
0.23532
0.47957
-0.00342
0.11272
0.24654
0.00850
0.08149
-0.00966
-0.04923
-0.07917
-0.04618
-0.12368
-0.15537
0.00184
-0.01529
0.00635
0.00201
-0.01632
0.00520
-0.10192
-0.01307
-0.11327
-0.09948
-0.01254
-0.11638
-0.01058
-0.13245
-0.01435
-0.13028
0.00530
0.03431
0.12022
0.00466
0.03519
0.11909
0.02022
0.15586
0.27824
0.01871
0.15549
0.27857
0.05256
0.53066
0.27862
0.05568
0.52785
0.28549
0.08824
0.40409
0.71470
0.08741
0.39862
0.71874
0.06294
0.44412
0.63072
0.05919
0.44915
0.63317
-0.00141
0.41052
0.51342
-0.00029
0.41102
0.50656
0.00193
0.49911
0.37798
0.00380
0.50277
0.37559
-0.00058
0.36834
0.36605
0.36630
0.36345
0.00231
-0.15956
-0.11393
0.00152
-0.16002
-0.11171
0.00656
-0.06804
-0.04310
0.00551
-0.06705
-0.04526
0.00119
-0.01090
0.03331
0.00277
-0.01004
0.03127
0.00017
-0.11905
-0.04968
0.00230
-0.11984
-0.04934
-0.03877
-0.06972
-0.04191
-0.07100
0.00958
0.04536
0.14028
0.00887
0.04577
0.14270
0.03651
0.05699
0.31146
0.50043
0.03590
0.05738
0.30774
0.50386
0.18440
0.30275
0.18428
0.30503
0.09573
0.41788
0.74872
0.09587
0.41255
0.74142
0.05930
0.63047
0.42974
0.06124
0.63950
0.42902
0.00064
0.00014
0.38473
0.34162
-0.00040
-0.00001
0.37543
0.34273
0.38544
0.43589
0.38811
0.44152
0.34312
0.34797
0.00135
-0.05702
-0.00291
0.00087
-0.05971
-0.00481
-0.03291
-0.16980
-0.04207
-0.03633
-0.16625
-0.04482
0.00727
0.00396
0.06384
0.00568
0.00401
0.06617
-0.01172
-0.11845
-0.02537
-0.01129
-0.11758
-0.02587
0.01910
0.05369
0.17916
0.01974
0.05467
0.17635
0.04073
0.18568
0.31092
0.04149
0.18706
0.30887
-0.00094
0.04794
0.35612
0.39449
-0.00135
0.04528
0.35554
0.40094
0.06303
0.29856
0.52123
0.06632
0.29718
0.51677
-0.00131
0.34389
0.29733
0.00041
0.35151
0.29310
0.38614
0.71860
0.38774
0.72834
-0.09020
-0.02368
-0.09252
-0.02431
0.00091
0.34507
0.30853
0.33715
0.30278
-0.00120
-0.06206
0.01054
-0.00083
-0.06286
0.00991
-0.04264
-0.16288
-0.02795
-0.04538
-0.15955
-0.02826
0.00830
0.00028
0.08729
0.00903
-0.00054
0.08568
-0.01746
-0.11234
-0.01295
-0.01667
-0.11193
-0.01010
0.01928
0.04891
0.17738
0.01812
0.05124
0.17691
0.04652
0.15710
0.31154
0.04719
0.15840
0.31634
0.04677
-0.00337
0.35020
0.28945
0.04606
-0.00273
0.35640
0.28358
0.05923
0.24615
0.46324
0.05941
0.24880
0.45960
0.66220
0.32752
0.65740
0.32434
0.00032
0.31553
0.29640
0.00028
0.31954
0.29790
0.31849
0.31987
-0.09507
-0.02986
-0.09751
-0.02703
-0.00412
-0.05967
0.04175
-0.00226
-0.06260
0.04066
-0.04936
-0.16240
-0.03195
-0.04882
-0.16077
-0.03095
0.00870
-0.00256
0.10533
0.00837
-0.00333
0.09976
-0.02453
-0.12098
-0.00171
-0.02572
-0.11945
-0.00552
0.02188
0.03990
0.20272
0.02151
0.03990
0.20242
0.04092
0.12787
0.29839
0.03963
0.12562
0.29494
0.05642
0.04855
0.24225
0.46140
0.05973
0.04747
0.23780
0.46484
0.18686
0.45198
0.18878
0.45913
-0.00057
0.30820
0.23784
-0.00206
0.30617
0.23966
-0.00217
0.27057
0.26727
0.27343
0.26685
-0.10216
-0.10607
-0.00675
-0.07174
0.03016
-0.00784
-0.07162
0.03163
-0.05511
-0.05083
-0.05720
-0.04358
0.00856
-0.02332
0.09773
0.01016
-0.02117
0.10022
0.01476
0.01170
0.16979
0.01397
0.01278
0.16987
0.03977
0.08676
0.27582
0.03883
0.08807
0.27486
0.02592
0.13454
0.34434
0.02677
0.13337
0.34211
-0.02699
-0.12666
-0.02162
-0.02522
-0.12313
-0.02216
-0.00433
0.26201
0.20294
-0.00289
0.26314
0.20330
-0.00339
0.28800
0.23673
-0.00349
0.29197
0.23776
0.24332
0.24520
-0.00960
-0.08012
0.03636
-0.01124
-0.08207
0.03214
-0.05234
-0.07402
-0.05901
-0.07673
0.01119
-0.03837
0.08841
0.00948
-0.03747
0.08859
0.01003
-0.01147
0.16257
0.00991
-0.01124
0.16179
0.04321
0.04205
0.21569
0.04465
0.04338
0.21474
-0.03111
-0.14418
-0.04129
-0.03204
-0.14361
-0.04011
0.03231
0.06907
0.28359
0.03296
0.06742
0.28171
-0.00267
0.22886
0.18593
-0.00583
0.22679
0.18649
-0.00486
0.23790
0.19760
0.24108
0.19449
-0.00908
-0.10671
-0.00961
-0.00786
-0.10722
-0.00953
0.00585
-0.06566
0.04506
0.00418
-0.06728
0.04516
-0.06828
-0.07349
0.02013
-0.03928
0.09336
0.01874
-0.03843
0.09346
0.01873
-0.01624
0.15060
0.01986
-0.01576
0.15181
-0.02861
-0.08729
-0.03002
-0.08331
0.00020
0.10848
0.15091
-0.00036
0.11016
0.14920
-0.00469
0.16623
0.15459
-0.00382
0.16316
0.15265
0.16493
0.16761
-0.01327
-0.13210
-0.04598
-0.01288
-0.13330
-0.04437
-0.01576
-0.09824
-0.00201
-0.01702
-0.09940
-0.00437
0.01910
-0.06926
0.06593
0.01768
-0.06809
0.06448
0.01570
-0.04450
0.11082
0.01464
-0.04357
0.11139
-0.00068
0.12185
0.10418
0.00168
0.12681
0.10510
-0.00256
0.12154
0.12163
0.12147
0.11932
-0.03681
-0.11743
-0.03903
-0.11485
-0.03569
-0.16182
-0.09250
-0.03928
-0.16176
-0.08815
-0.02554
-0.13197
-0.05025
-0.02822
-0.13199
-0.04844
0.00522
-0.01248
-0.10393
0.00702
-0.01100
-0.10544
0.00362
0.00766
0.06298
0.00282
0.00912
0.05936
0.00310
0.07919
0.07133
0.00180
0.07953
0.06978
0.07561
0.07420
-0.06645
-0.06684
-0.05751
-0.06542
-0.02150
0.00382
-0.02865
-0.13653
-0.02367
0.00318
-0.02390
-0.13672
-0.10922
-0.10705
0.00649
-0.00189
0.00522
0.00860
-0.00055
0.00493
0.00618
0.01077
0.01048
0.01017
0.01083
-0.03199
0.01476
-0.06346
-0.02992
0.01236
-0.06634
0.01148
-0.07597
-0.05404
0.01107
-0.07784
-0.05048
-0.06230
-0.06286
0.00882
0.00775
0.01140
0.00981
0.00873
0.02853
0.02835
0.00888
0.02911
0.02841
0.02459
0.02338
0.02364
0.02208
0.01064
0.01069
0.07089
0.07064
0.01332
0.07620
0.06057
0.01286
0.07605
0.06087
0.00344
-0.00228
0.00776
0.00273
-0.00085
0.00856
0.08248
0.05779
0.08292
0.05862
0.00873
0.00927
0.10548
0.09201
0.00930
0.10517
0.09210
0.01019
0.11562
0.08124
0.01001
0.11461
0.08086
0.01036
-0.03579
-0.03107
0.06946
0.01183
-0.03450
-0.03039
0.06874
0.11571
0.11789
0.11400
0.11715
-0.04326
-0.06687
0.00636
-0.04448
-0.06546
0.00929
-0.09835
-0.03141
-0.09782
-0.02870
0.00539
0.00450
0.11823
0.11908
0.00514
0.13446
0.11057
0.00519
0.13332
0.11205
0.02102
0.14126
0.09700
0.02264
0.14036
0.09751
-0.00812
0.10730
0.18494
-0.00709
0.10641
0.18363
-0.02376
0.01142
0.12117
-0.02250
0.01190
0.12226
-0.02309
-0.02372
0.05657
-0.02330
-0.02339
0.05736
-0.05896
0.01267
-0.05910
0.01285
0.00163
0.00083
0.14171
0.13557
0.00090
0.14105
0.13682
0.00539
0.15387
0.11776
0.00542
0.15312
0.11755
0.01967
0.15692
0.24610
0.01975
0.15602
0.24666
-0.00055
0.04366
0.24856
0.00055
0.04318
0.24949
-0.00112
0.05180
0.16757
-0.00038
0.05177
0.16905
-0.02260
0.02212
0.10753
-0.02160
0.02210
0.10827
-0.00167
-0.00123
0.17501
0.17650
-0.00066
0.20386
0.15511
-0.00085
0.20259
0.15556
0.03362
0.21442
0.13222
0.03374
0.21278
0.13336
-0.05403
-0.02047
0.04827
-0.05409
-0.01990
0.04727
0.03434
0.22778
0.36449
0.03493
0.22581
0.36509
0.01861
0.12278
0.28237
0.01853
0.12224
0.28302
-0.06822
0.00369
-0.06765
0.00290
0.00117
0.06306
0.20270
0.00245
0.06222
0.20361
-0.01832
0.03504
0.12545
-0.01803
0.03519
0.12490
-0.00335
-0.00288
0.20585
0.18613
-0.00333
0.20421
0.18595
-0.00022
0.23169
0.16463
-0.00039
0.23005
0.16508
0.03110
0.23969
0.39820
0.03062
0.23861
0.39974
-0.04149
0.00075
0.06524
-0.04319
0.00188
0.06785
0.02762
0.19260
0.43034
0.02772
0.19075
0.43191
0.02063
0.16300
0.31360
0.02112
0.16146
0.31485
0.00467
0.09259
0.21021
0.00487
0.09093
0.21156
-0.04820
0.01280
-0.04661
0.01584
-0.01587
0.06180
0.12563
-0.01513
0.06206
0.12831
-0.00280
-0.00307
0.22549
0.22608
-0.00457
0.24588
0.20387
-0.00398
0.24476
0.20498
0.05183
0.26133
0.17790
0.05154
0.25916
0.17922
-0.04242
0.02208
0.05830
-0.04091
0.02195
0.05805
0.04840
0.61540
0.30726
0.04771
0.61737
0.30686
0.03315
0.25502
0.45553
0.03380
0.25391
0.45531
0.02319
0.21164
0.31125
0.02382
0.21011
0.31162
0.00543
0.11555
0.19630
0.00558
0.11427
0.19633
-0.08714
-0.03759
0.01457
-0.08594
-0.03607
0.01582
-0.00950
0.08073
0.10351
-0.00995
0.07993
0.10367
-0.08966
0.00193
-0.08793
0.00209
-0.00160
-0.00353
0.26681
0.25296
-0.00341
0.26651
0.25399
-0.00309
0.28590
0.23136
-0.00318
0.28513
0.23157
0.04450
0.05886
0.33784
0.67426
0.04383
0.05860
0.33654
0.67246
0.56851
0.29996
0.56812
0.29821
0.03843
0.30051
0.46228
0.03848
0.29941
0.46348
0.02327
0.24683
0.29982
0.02303
0.24606
0.30148
-0.03645
0.03542
0.04301
-0.03483
0.03595
0.04407
0.00783
0.13515
0.16696
0.00777
0.13458
0.16868
-0.07645
-0.02553
0.01177
-0.07612
-0.02477
0.01125
-0.00498
0.09355
0.07506
-0.00505
0.09377
0.07652
-0.08644
-0.00044
-0.08599
-0.00214
-0.00190
-0.00163
0.28112
0.28137
-0.00174
0.30684
0.26036
-0.00198
0.30529
0.26092
0.08865
0.06254
0.94480
0.35812
0.08815
0.06263
0.94905
0.35598
0.06287
0.39833
0.68663
0.06299
0.39702
0.68715
0.32464
0.32323
0.32269
0.32348
0.04120
0.36238
0.44436
0.04086
0.36005
0.44442
0.02170
0.28565
0.26345
0.02166
0.28532
0.26375
-0.02907
0.04209
0.02095
-0.02832
0.04191
0.02127
0.00749
0.13127
0.12532
0.00827
0.13097
0.12589
-0.07393
-0.02413
0.00356
-0.07455
-0.02403
0.00350
0.00252
0.08731
0.03728
0.00177
0.08765
0.03705
-0.00051
-0.00028
0.32696
0.30717
-0.00055
0.32682
0.30864
-0.08639
-0.00633
-0.08604
-0.00631
0.09530
0.06952
0.37787
0.87768
0.09528
0.06857
0.37490
0.87628
0.00021
0.39075
0.34391
0.00048
0.39141
0.34242
0.06266
0.42880
0.67712
0.06202
0.42687
0.67667
0.35980
0.67945
0.35838
0.68362
0.03751
0.41662
0.37547
0.03723
0.41812
0.37242
0.01464
0.28071
0.22449
0.01530
0.27880
0.22568
-0.02032
0.03131
-0.00292
-0.02071
0.03176
-0.00226
0.00999
0.12269
0.08827
0.00984
0.12105
0.08901
-0.04680
-0.03732
-0.03436
-0.04713
-0.03738
-0.03323
0.01300
0.07327
0.00689
0.01229
0.07345
0.00819
0.00060
0.00009
0.33535
0.33695
0.00106
0.09884
0.35672
0.47996
0.00087
0.09956
0.35638
0.47702
0.35042
0.49037
0.35015
0.49063
0.13167
0.40994
0.58744
0.13103
0.40953
0.58683
0.09533
0.41503
0.79426
0.09510
0.41350
0.79841
0.05433
0.02737
0.35839
0.38140
0.05399
0.02770
0.35759
0.38122
0.44856
0.66078
0.44591
0.66272
0.01025
0.24924
0.18733
0.01056
0.24846
0.18739
-0.08423
-0.01455
-0.08414
-0.01340
0.01166
0.01461
-0.05143
0.01226
0.01475
-0.05082
0.01616
0.09111
0.06059
0.01539
0.09077
0.06105
0.01807
0.04216
-0.01405
0.01702
0.04231
-0.01346
-0.02015
-0.03973
-0.09225
-0.02008
-0.04015
-0.09103
0.00101
0.00060
0.55090
0.34660
0.00054
0.34653
0.54945
0.00145
0.55646
0.34920
0.00174
0.34938
0.55404
0.09732
0.58575
0.34693
0.09633
0.34635
0.58538
0.13651
0.58591
0.43648
0.13665
0.43553
0.58661
0.08588
0.83758
0.45963
0.08608
0.45978
0.83730
0.04214
0.61725
0.42852
0.04209
0.42721
0.61904
0.01387
0.35103
0.30016
0.01370
0.29921
0.35242
0.01266
0.16615
0.18732
0.01272
0.18627
0.16693
-0.05733
-0.01286
-0.05811
-0.01286
-0.00323
0.00551
-0.07031
0.00616
-0.00259
-0.07031
0.02052
0.05233
0.06548
0.05216
0.02022
0.06548
-0.00259
-0.05811
-0.09103
0.02022
0.00616
-0.01346
0.00709
0.05216
0.16693
0.02690
0.18627
0.35242
0.07196
0.29921
0.61904
0.12677
0.42721
0.83730
0.09062
0.45978
0.58661
0.00091
0.43553
0.58538
0.00064
0.34635
0.55404
0.00065
0.34938
0.54945
0.00065
0.34653
0.34660
0.00064
0.34920
0.55090
0.00091
0.34693
0.55646
0.09062
0.43648
0.58575
0.12677
0.45963
0.58591
0.07196
0.42852
0.83758
0.02690
0.30016
0.61725
0.00709
0.18732
0.35103
0.05233
0.16615
0.02052
0.00551
-0.01405
-0.00323
-0.05733
-0.09225
0.01272
0.04231
0.06105
0.01266
0.04216
0.06059
-0.04015
0.01702
-0.05082
-0.03973
0.01807
-0.05143
-0.02008
-0.01340
-0.02015
-0.01455
0.01370
0.09077
0.18739
0.01387
0.09111
0.18733
0.04209
0.24846
0.38122
0.04214
0.24924
0.38140
0.08608
0.66272
0.35759
0.08588
0.66078
0.35839
0.13665
0.44591
0.79841
0.13651
0.44856
0.79426
0.09633
0.41350
0.58683
0.09732
0.41503
0.58744
0.00174
0.40953
0.47702
0.00145
0.40994
0.47996
0.00054
0.49063
0.35638
0.00060
0.49037
0.35672
0.00101
0.35015
0.33695
0.35042
0.33535
0.01475
-0.08414
-0.03323
0.01461
-0.08423
-0.03436
0.01539
0.01226
0.00819
0.01616
0.01166
0.00689
0.01056
0.07345
0.08901
0.01025
0.07327
0.08827
0.01229
-0.03738
-0.00226
0.01300
-0.03732
-0.00292
-0.04713
-0.00631
-0.04680
-0.00633
0.02770
0.12105
0.22568
0.02737
0.12269
0.22449
0.05399
0.09510
0.37242
0.67667
0.05433
0.09533
0.37547
0.67712
0.27880
0.41812
0.28071
0.41662
0.13103
0.42687
0.87628
0.13167
0.42880
0.87768
0.09956
0.68362
0.37490
0.09884
0.67945
0.37787
0.00087
0.00009
0.34242
0.30864
0.00106
0.00060
0.34391
0.30717
0.35838
0.39141
0.35980
0.39075
0.32682
0.32696
0.00984
0.03176
0.03705
0.00999
0.03131
0.03728
-0.02071
-0.08604
0.00350
-0.02032
-0.08639
0.00356
0.01530
0.08765
0.12589
0.01464
0.08731
0.12532
0.00177
-0.02403
0.02127
0.00252
-0.02413
0.02095
0.03723
0.13097
0.26375
0.03751
0.13127
0.26345
0.06202
0.28532
0.44442
0.06266
0.28565
0.44436
0.00048
0.06857
0.32348
0.35598
0.00021
0.06952
0.32323
0.35812
0.09528
0.36005
0.68715
0.09530
0.36238
0.68663
-0.00055
0.32269
0.26092
-0.00028
0.32464
0.26036
0.39702
0.94905
0.39833
0.94480
-0.07455
-0.00214
-0.07393
-0.00044
-0.00051
0.30529
0.28137
0.30684
0.28112
0.00827
0.04191
0.07652
0.00749
0.04209
0.07506
-0.02832
-0.08599
0.01125
-0.02907
-0.08644
0.01177
0.02166
0.09377
0.16868
0.02170
0.09355
0.16696
-0.00505
-0.02477
0.04407
-0.00498
-0.02553
0.04301
0.04086
0.13458
0.30148
0.04120
0.13515
0.29982
0.06299
0.24606
0.46348
0.06287
0.24683
0.46228
0.06263
-0.00198
0.29821
0.23157
0.06254
-0.00174
0.29996
0.23136
0.08815
0.29941
0.67246
0.08865
0.30051
0.67426
0.56812
0.33654
0.56851
0.33784
-0.00163
0.28513
0.25399
-0.00190
0.28590
0.25296
0.26651
0.26681
-0.07612
0.00209
-0.07645
0.00193
0.00777
0.03595
0.10367
0.00783
0.03542
0.10351
-0.03483
-0.08793
0.01582
-0.03645
-0.08966
0.01457
0.02303
0.07993
0.19633
0.02327
0.08073
0.19630
-0.00995
-0.03607
0.05805
-0.00950
-0.03759
0.05830
0.03848
0.11427
0.31162
0.03843
0.11555
0.31125
0.05860
0.21011
0.45531
0.05886
0.21164
0.45553
0.04383
-0.00318
0.30686
0.17922
0.04450
-0.00309
0.30726
0.17790
0.25391
0.61737
0.25502
0.61540
-0.00341
0.25916
0.20498
-0.00353
0.26133
0.20387
-0.00160
0.24476
0.22608
0.24588
0.22549
-0.08594
-0.08714
0.00558
0.02195
0.12831
0.00543
0.02208
0.12563
-0.04091
0.01584
-0.04242
0.01280
0.02382
0.06206
0.21156
0.02319
0.06180
0.21021
0.03380
0.09093
0.31485
0.03315
0.09259
0.31360
0.04771
0.16146
0.43191
0.04840
0.16300
0.43034
0.05154
0.19075
0.39974
0.05183
0.19260
0.39820
-0.01513
-0.04661
0.06785
-0.01587
-0.04820
0.06524
-0.00398
0.23861
0.16508
-0.00457
0.23969
0.16463
-0.00307
0.23005
0.18595
-0.00280
0.23169
0.18613
0.20421
0.20585
0.00487
0.00188
0.12490
0.00467
0.00075
0.12545
-0.04319
0.00290
-0.04149
0.00369
0.02112
0.03519