# vtk DataFile Version 3.0
Point representing Sub_cellular elem model
ASCII

DATASET UNSTRUCTURED_GRID
POINTS 3657 float
-57.60124 -3.13858 51.74998 
-57.59849 3.16548 51.75223 
-57.24462 -9.38366 51.37977 
-57.24231 9.41514 51.38392 
-54.60117 0.00910 55.06265 
-54.40868 -6.23533 54.86716 
-54.40961 6.25537 54.86387 
-54.13808 -17.67590 52.51629 
-54.12093 17.69465 52.51573 
-53.91077 -12.42827 54.32818 
-53.89632 12.45316 54.33568 
-51.13829 -3.14389 58.17052 
-51.13985 3.15873 58.16884 
-50.79112 -9.38500 57.81321 
-50.78816 9.39497 57.81332 
-50.44236 -20.67772 55.11810 
-50.43107 20.69617 55.11328 
-50.30625 -15.42949 56.93864 
-50.29579 15.44265 56.94235 
-50.31373 -25.83968 52.93415 
-50.30419 25.86983 52.94455 
-49.89299 -30.86394 50.53567 
-49.87480 30.89381 50.53816 
-47.60977 0.00257 61.16612 
-47.46397 -6.28492 60.98888 
-47.46243 6.29193 60.98913 
-47.08964 -12.35697 60.32997 
-47.08649 12.36743 60.33508 
-46.49649 -18.36357 59.31181 
-46.49014 18.37314 59.31321 
-46.49887 -23.62045 57.38549 
-46.49100 23.63555 57.38691 
-46.30001 -28.76694 55.18858 
-46.28792 28.78815 55.18916 
-45.08338 -34.36668 52.92833 
-45.05878 34.38821 52.91982 
-43.88969 -3.14566 63.80009 
-43.88695 3.15430 63.80154 
-43.62891 -9.22235 63.40137 
-43.62556 9.22535 63.39763 
-43.13226 -15.25794 62.59823 
-43.12995 15.26530 62.59764 
-42.45802 -21.17928 61.36544 
-42.45483 21.19178 61.36344 
-42.38960 -26.41720 59.37789 
-42.37912 26.43183 59.37859 
-41.27600 -32.06764 57.36171 
-41.26424 32.08047 57.36390 
-40.13382 0.00336 66.32714 
-39.99276 -6.07062 66.11146 
-39.98645 6.07562 66.11378 
-39.60639 -12.11062 65.56343 
-39.60664 12.11736 65.56192 
-39.91241 -37.57283 54.94294 
-39.89792 37.59024 54.95614 
-39.02274 -18.06141 64.55260 
-39.02507 18.06675 64.55064 
-38.25937 -23.90771 63.16297 
-38.25483 23.91345 63.16392 
-38.37304 -42.75028 52.08045 
-38.35835 42.77817 52.09265 
-37.24422 -29.60451 61.33537 
-37.23289 29.61147 61.34060 
-36.01052 -35.15499 59.15632 
-35.99815 35.16119 59.16155 
-35.38667 -3.19671 68.87840 
-35.38340 3.19660 68.87988 
-35.10531 -9.26938 68.47891 
-35.10730 9.27633 68.48314 
-34.58060 -15.32289 67.69278 
-34.57971 15.32540 67.69269 
-34.53291 -40.47283 56.53482 
-34.52163 40.48348 56.53603 
-33.89777 -21.23796 66.48125 
-33.89732 21.23623 66.48128 
-33.86140 -26.50477 64.61308 
-33.85528 26.50450 64.61686 
-32.73571 -32.14375 62.62959 
-32.72802 32.14830 62.63171 
-32.87762 -45.54665 53.57603 
-32.84589 45.56240 53.58698 
-31.37954 -37.63467 60.24194 
-31.36621 37.64125 60.23991 
-30.52174 0.00073 71.23403 
-30.42453 -6.37599 71.03242 
-30.42280 6.37792 71.03275 
-29.95244 -12.46822 70.41462 
-29.94675 12.46674 70.41113 
-29.80141 -42.86212 57.48256 
-29.78882 42.86789 57.48551 
-29.38051 -18.46132 69.40267 
-29.37827 18.46005 69.40405 
-29.41103 -23.77568 67.75834 
-29.40851 23.77712 67.75932 
-29.32724 -28.99385 65.79434 
-29.32365 28.99869 65.79425 
-28.05290 -34.56575 63.61758 
-28.05030 34.57156 63.62138 
-27.95634 -47.97862 54.23984 
-27.93446 47.98687 54.23520 
-26.61711 -39.95897 61.07282 
-26.60716 39.96532 61.07346 
-26.01773 -52.57434 50.66530 
-25.98944 52.59191 50.66731 
-25.40805 -3.19795 73.16007 
-25.40284 3.20001 73.15539 
-25.24450 -9.50853 72.67749 
-25.24421 9.51419 72.67656 
-24.77520 -20.91374 70.48725 
-24.77740 20.91693 70.49041 
-24.70358 -15.55691 71.84591 
-24.69875 15.56294 71.84708 
-24.75896 -26.21241 68.73691 
-24.75327 26.21483 68.73355 
-24.64673 -31.33583 66.62201 
-24.64408 31.34212 66.62049 
-24.83713 -45.21512 58.04751 
-24.82441 45.22457 58.04550 
-23.29113 -36.83051 64.27757 
-23.28264 36.83664 64.27740 
-22.92052 -50.19767 54.61572 
-22.90235 50.20652 54.61617 
-21.56078 -42.19925 61.52925 
-21.55040 42.20139 61.53223 
-20.80587 -54.67484 50.91060 
-20.77594 54.68517 50.91552 
-20.24077 0.00011 74.86042 
-20.15592 -6.31316 74.59339 
-20.15848 6.31352 74.59213 
-20.04573 -17.97926 72.75769 
-20.04075 17.98119 72.75860 
-20.08334 -23.29572 71.28176 
-20.08290 23.29761 71.28141 
-19.93915 -12.58251 73.90080 
-19.93594 12.58242 73.90145 
-20.01519 -28.48588 69.38812 
-20.01617 28.48794 69.38747 
-19.87169 -33.55005 67.16924 
-19.86895 33.55537 67.16788 
-19.69765 -47.33748 58.32467 
-19.68979 47.34022 58.32523 
-18.20013 -39.00601 64.63736 
-18.18878 39.00787 64.63974 
-17.74898 -52.13043 54.71364 
-17.73193 52.13826 54.71329 
-16.40696 -44.24878 61.71482 
-16.39844 44.25265 61.71472 
-15.19677 -3.19729 75.96025 
-15.19402 3.19734 75.96625 
-15.54901 -56.47039 50.85750 
-15.51790 56.48274 50.86658 
-15.11893 -20.24453 73.38065 
-15.12025 20.24713 73.37974 
-15.04729 -9.51258 75.47650 
-15.04856 9.50825 75.47576 
-15.08803 -25.56663 71.72305 
-15.08609 25.56401 71.72422 
-15.02716 -14.86341 74.64137 
-15.02509 14.86091 74.64224 
-14.97125 -30.72428 69.71083 
-14.97191 30.72106 69.71260 
-14.99528 -35.59195 67.35762 
-14.98959 35.58962 67.36061 
-14.49465 -49.18724 58.33315 
-14.48842 49.19134 58.33200 
-13.24572 -40.94785 64.64013 
-13.24283 40.94940 64.63471 
-12.50611 -53.83167 54.56915 
-12.48438 53.83766 54.56891 
-11.37450 -46.08181 61.47464 
-11.36211 46.08713 61.47923 
-10.11875 0.00081 76.88385 
-10.08996 -11.75661 76.01096 
-10.09031 11.75864 76.00626 
-10.07788 -6.38040 76.65803 
-10.07406 6.38182 76.65839 
-10.07857 -17.06259 75.05060 
-10.07868 17.06425 75.05031 
-10.08229 -22.43592 73.61624 
-10.07717 22.43825 73.61665 
-10.04640 -32.66055 69.70906 
-10.04267 32.66736 69.71161 
-10.01800 -27.71276 71.84486 
-10.01684 27.71404 71.84467 
-10.04580 -37.48245 67.27604 
-10.04417 37.49026 67.27237 
-9.49023 -57.34769 51.44132 
-9.45772 57.34753 51.43504 
-9.40832 -50.89099 57.92310 
-9.40034 50.89090 57.92500 
-8.19627 -42.72352 64.32416 
-8.18904 42.72793 64.32256 
-6.28800 -47.72179 60.99483 
-6.27271 47.72723 60.99252 
-6.29003 -54.35791 55.11795 
-6.27263 54.35704 55.12036 
-5.04617 -3.19945 77.33826 
-5.04269 3.20418 77.33908 
-5.04929 -8.57306 76.93085 
-5.04765 8.57394 76.93072 
-5.04617 -13.94314 76.16171 
-5.04656 13.94210 76.16610 
-5.05925 -19.17470 75.04199 
-5.06003 19.17806 75.04099 
-5.02270 -24.51323 73.48452 
-5.01759 24.51816 73.48320 
-5.01866 -29.52730 71.62193 
-5.01980 29.52351 71.61882 
-5.02322 -34.44662 69.39028 
-5.02308 34.44908 69.38929 
-5.04164 -39.18203 66.84353 
-5.03847 39.18634 66.84149 
-3.20234 -57.70121 51.85358 
-3.17567 57.70304 51.85081 
-3.16607 -51.24317 58.30541 
-3.15295 51.24450 58.29882 
-3.14243 -44.30730 63.70842 
-3.13239 44.31001 63.70722 
-0.00854 -54.54207 55.34090 
-0.00615 -47.86988 61.17455 
-0.00253 -40.71054 66.14041 
0.00041 -36.03133 68.76982 
0.00277 -31.20908 71.10361 
-0.00358 -26.23666 73.05861 
0.00119 -21.17476 74.70125 
0.00171 -15.99006 75.94350 
0.00065 -10.72301 76.86285 
-0.00312 -5.36945 77.39041 
0.00000 0.00000 77.59704 
0.00312 5.36945 77.39041 
-0.00065 10.72301 76.86285 
-0.00171 15.99006 75.94350 
-0.00119 21.17476 74.70125 
0.00358 26.23666 73.05861 
-0.00277 31.20908 71.10361 
-0.00041 36.03133 68.76982 
0.00253 40.71054 66.14041 
0.00615 47.86988 61.17455 
0.00854 54.54207 55.34090 
3.13239 -44.31001 63.70722 
3.14243 44.30730 63.70842 
3.15295 -51.24450 58.29882 
3.16607 51.24317 58.30541 
3.17567 -57.70304 51.85081 
3.20234 57.70121 51.85358 
5.03847 -39.18634 66.84149 
5.04164 39.18203 66.84353 
5.02308 -34.44908 69.38929 
5.02322 34.44662 69.39028 
5.01980 -29.52351 71.61882 
5.01866 29.52730 71.62193 
5.01759 -24.51816 73.48320 
5.02270 24.51323 73.48452 
5.06003 -19.17806 75.04099 
5.05925 19.17470 75.04199 
5.04656 -13.94210 76.16610 
5.04617 13.94314 76.16171 
5.04765 -8.57394 76.93072 
5.04929 8.57306 76.93085 
5.04269 -3.20418 77.33908 
5.04617 3.19945 77.33826 
6.27263 -54.35704 55.12036 
6.29003 54.35791 55.11795 
6.27271 -47.72723 60.99252 
6.28800 47.72179 60.99483 
8.18904 -42.72793 64.32256 
8.19627 42.72352 64.32416 
9.40034 -50.89090 57.92500 
9.40832 50.89099 57.92310 
9.45772 -57.34753 51.43504 
9.49023 57.34769 51.44132 
10.04417 -37.49026 67.27237 
10.04580 37.48245 67.27604 
10.01684 -27.71404 71.84467 
10.01800 27.71276 71.84486 
10.04267 -32.66736 69.71161 
10.04640 32.66055 69.70906 
10.07717 -22.43825 73.61665 
10.08229 22.43592 73.61624 
10.07868 -17.06425 75.05031 
10.07857 17.06259 75.05060 
10.07406 -6.38182 76.65839 
10.07788 6.38040 76.65803 
10.09031 -11.75864 76.00626 
10.08996 11.75661 76.01096 
10.11875 -0.00081 76.88385 
11.36211 -46.08713 61.47923 
11.37450 46.08181 61.47464 
12.48438 -53.83766 54.56891 
12.50611 53.83167 54.56915 
13.24283 -40.94940 64.63471 
13.24572 40.94785 64.64013 
14.48842 -49.19134 58.33200 
14.49465 49.18724 58.33315 
14.98959 -35.58962 67.36061 
14.99528 35.59195 67.35762 
14.97191 -30.72106 69.71260 
14.97125 30.72428 69.71083 
15.02509 -14.86091 74.64224 
15.02716 14.86341 74.64137 
15.08609 -25.56401 71.72422 
15.08803 25.56663 71.72305 
15.04856 -9.50825 75.47576 
15.04729 9.51258 75.47650 
15.12025 -20.24713 73.37974 
15.11893 20.24453 73.38065 
15.51790 -56.48274 50.86658 
15.54901 56.47039 50.85750 
15.19402 -3.19734 75.96625 
15.19677 3.19729 75.96025 
16.39844 -44.25265 61.71472 
16.40696 44.24878 61.71482 
17.73193 -52.13826 54.71329 
17.74898 52.13043 54.71364 
18.18878 -39.00787 64.63974 
18.20013 39.00601 64.63736 
19.68979 -47.34022 58.32523 
19.69765 47.33748 58.32467 
19.86895 -33.55537 67.16788 
19.87169 33.55005 67.16924 
20.01617 -28.48794 69.38747 
20.01519 28.48588 69.38812 
19.93594 -12.58242 73.90145 
19.93915 12.58251 73.90080 
20.08290 -23.29761 71.28141 
20.08334 23.29572 71.28176 
20.04075 -17.98119 72.75860 
20.04573 17.97926 72.75769 
20.15848 -6.31352 74.59213 
20.15592 6.31316 74.59339 
20.24077 -0.00011 74.86042 
20.77594 -54.68517 50.91552 
20.80587 54.67484 50.91060 
21.55040 -42.20139 61.53223 
21.56078 42.19925 61.52925 
22.90235 -50.20652 54.61617 
22.92052 50.19767 54.61572 
23.28264 -36.83664 64.27740 
23.29113 36.83051 64.27757 
24.82441 -45.22457 58.04550 
24.83713 45.21512 58.04751 
24.64408 -31.34212 66.62049 
24.64673 31.33583 66.62201 
[...]
CELL_DATA 40900
SCALARS Strain double 1
LOOKUP_TABLE default
-0.00134
-0.00117
-0.00526
-0.00465
-0.00047
-0.00487
-0.00634
-0.00614
-0.01043
-0.00611
-0.00940
-0.00192
-0.00161
0.00387
0.00320
-0.00428
0.00348
0.00190
-0.00345
0.00410
0.00167
-0.00501
-0.01866
-0.01201
-0.00560
-0.01978
-0.01187
0.00306
-0.01061
0.00254
-0.01265
-0.00243
-0.00197
0.01035
0.01080
-0.00272
0.01167
0.01055
-0.00363
0.01266
0.00842
-0.00310
0.01282
0.00894
-0.00736
-0.00952
-0.01227
-0.01566
-0.00598
-0.00866
-0.01157
-0.01597
0.00593
-0.00729
0.00560
-0.00838
-0.00855
-0.01142
-0.01529
-0.00787
-0.01174
-0.01655
-0.01641
-0.01922
-0.01672
-0.01981
-0.00236
-0.00206
0.01687
0.01770
-0.00309
0.01844
0.01710
-0.00260
0.01852
0.01660
-0.00144
0.01983
0.01212
-0.00143
0.01973
0.01124
-0.00412
-0.00526
-0.00125
-0.00320
-0.00568
-0.00166
-0.00730
-0.00453
-0.00764
-0.00622
-0.00521
-0.00737
-0.00591
-0.00732
-0.01025
-0.00493
-0.00706
-0.01088
-0.01417
-0.01776
-0.01370
-0.01827
-0.00280
-0.00201
0.02147
0.02128
-0.00287
0.02121
0.02147
-0.00280
0.02276
0.02216
-0.00218
0.02346
0.02220
0.00218
0.01556
0.01391
0.00307
0.01524
0.01293
-0.00385
-0.00209
0.00504
-0.00365
-0.00198
0.00478
-0.00300
-0.00144
-0.00059
-0.00331
-0.00147
-0.00087
-0.00604
-0.00511
-0.00636
-0.00598
-0.00447
-0.00665
-0.00299
-0.00326
0.02606
0.02599
-0.00316
0.02872
0.02621
-0.00289
0.02867
0.02544
-0.00063
0.02894
0.03261
-0.00087
0.02918
0.03249
-0.00896
-0.01213
-0.01537
-0.00744
-0.01251
-0.01675
0.00061
0.00754
0.01871
0.00070
0.00830
0.01859
-0.00123
0.00607
0.00960
-0.00107
0.00605
0.00944
-0.01378
-0.01594
-0.01434
-0.01452
-0.00149
0.00085
0.00284
-0.00157
0.00085
0.00190
-0.00179
-0.00308
-0.00710
-0.00091
-0.00374
-0.00718
-0.00331
-0.00329
0.03093
0.02962
-0.00220
0.03029
0.02953
0.00001
0.03181
0.02953
-0.00057
0.03243
0.02947
0.00590
0.02733
0.03664
0.00520
0.02801
0.03658
-0.00737
-0.00748
-0.01350
-0.00654
-0.00729
-0.01363
-0.00023
0.01494
0.02400
-0.00020
0.01524
0.02467
0.00001
0.01164
0.01313
0.00089
0.01083
0.01302
-0.00135
0.00427
0.00201
-0.00059
0.00357
0.00134
-0.01370
-0.01555
-0.01565
-0.01802
-0.00161
-0.00061
-0.00579
-0.00212
-0.00103
-0.00629
-0.00279
-0.00272
0.03148
0.03198
-0.00253
0.03326
0.03184
-0.00297
0.03342
0.03190
-0.00062
0.03266
0.04951
-0.00077
0.03149
0.05019
-0.00530
-0.00655
-0.01197
-0.00395
-0.00713
-0.01176
0.00198
0.04163
0.02736
0.00247
0.04135
0.02709
0.00041
0.02171
0.02550
0.00105
0.02113
0.02596
0.00059
0.01495
0.01381
0.00047
0.01513
0.01373
-0.00032
0.00666
0.00145
0.00025
0.00610
0.00238
-0.01018
-0.01468
-0.01576
-0.00935
-0.01536
-0.01626
-0.00036
0.00068
-0.00726
0.00037
0.00047
-0.00745
-0.01833
-0.00791
-0.01886
-0.00810
-0.00266
-0.00298
0.03594
0.03548
-0.00248
0.03561
0.03440
0.00392
0.03533
0.03182
0.00400
0.03538
0.03181
0.00613
0.00347
0.03298
0.04589
0.00556
0.00371
0.03391
0.04613
0.06516
0.03447
0.06481
0.03475
0.00104
0.02687
0.02914
0.00155
0.02644
0.02802
0.00002
0.01774
0.01226
0.00012
0.01768
0.01220
-0.00090
-0.00799
-0.01400
-0.00092
-0.00700
-0.01523
0.00112
0.00752
-0.00094
0.00044
0.00685
-0.00074
-0.00793
-0.01323
-0.01412
-0.00754
-0.01370
-0.01438
0.00089
0.00052
-0.01045
0.00105
0.00059
-0.01066
-0.02027
-0.00873
-0.02198
-0.00842
-0.00238
-0.00235
0.03686
0.03742
-0.00357
0.03776
0.03502
-0.00364
0.03883
0.03479
0.00666
0.00266
0.07090
0.03909
0.00672
0.00301
0.06980
0.03906
0.00368
0.03831
0.04926
0.00373
0.03799
0.04918
0.03806
0.03869
0.03774
0.03831
0.00042
0.03072
0.02794
0.00103
0.03159
0.02762
0.00037
0.01992
0.00982
0.00001
0.02033
0.00981
-0.00086
-0.00663
-0.01622
0.00029
-0.00674
-0.01641
0.00108
0.00647
-0.00343
0.00141
0.00640
-0.00493
-0.00652
-0.01525
-0.01683
-0.00615
-0.01608
-0.01614
0.00241
0.00002
-0.01505
0.00242
-0.00086
-0.01433
-0.00195
-0.00212
0.03939
0.03941
-0.00274
0.03870
0.03958
-0.02328
-0.01291
-0.02479
-0.01320
0.00520
0.00204
0.04231
0.06816
0.00419
0.00302
0.04258
0.06930
-0.00273
0.04564
0.04046
-0.00244
0.04622
0.04071
0.00267
0.04105
0.04997
0.00252
0.04102
0.05012
0.04027
0.05727
0.03930
0.05719
0.00038
0.02623
0.03261
0.00042
0.02773
0.03237
-0.00025
0.01986
0.00801
0.00074
0.01887
0.00800
0.00081
-0.00913
-0.02079
0.00173
-0.00800
-0.02077
0.00122
0.00526
-0.00946
0.00136
0.00453
-0.00857
-0.00152
-0.01745
-0.02343
-0.00056
-0.01803
-0.02415
0.00382
-0.00287
-0.02028
0.00318
-0.00392
-0.01966
-0.00110
-0.00112
0.04159
0.04240
-0.00090
0.00818
0.04070
0.04991
-0.00067
0.00796
0.04122
0.04972
0.04160
0.05241
0.04125
0.05197
0.00925
0.04170
0.05710
0.00934
0.04205
0.05711
0.00481
0.04248
0.06977
0.00466
0.04151
0.06997
0.00189
0.00018
0.02988
0.02365
0.00263
0.00087
0.02983
0.02276
0.04203
0.05029
0.04221
0.04955
0.00023
0.01531
0.00437
-0.00011
0.01569
0.00440
-0.02286
-0.02006
-0.02328
-0.02091
-0.00897
0.00125
-0.02663
-0.00923
0.00211
-0.02591
0.00113
0.00263
-0.01187
0.00171
0.00216
-0.01148
-0.00308
-0.00396
-0.02080
-0.00342
-0.00411
-0.02127
0.00029
-0.01294
-0.03042
0.00204
-0.01457
-0.03048
-0.00048
0.00081
0.05484
0.04031
0.00011
0.04024
0.05497
-0.00138
0.05651
0.04129
-0.00185
0.04205
0.05592
0.00607
0.05181
0.04115
0.00710
0.04083
0.05137
0.00563
0.05888
0.03357
0.00593
0.03352
0.05834
0.00415
0.06968
0.04558
0.00274
0.04504
0.06973
0.00028
0.04542
0.03883
0.00118
0.03975
0.04478
0.00086
0.02092
0.02404
0.00125
0.02354
0.02058
-0.00024
0.00142
0.00921
-0.00018
0.00914
0.00147
-0.01637
-0.02427
-0.01684
-0.02427
-0.00628
-0.00858
-0.02833
-0.00788
-0.00666
-0.02833
-0.00380
-0.00093
-0.01122
-0.00103
-0.00400
-0.01122
-0.00666
-0.01684
-0.03048
-0.00400
-0.00788
-0.02127
0.00047
-0.00103
0.00147
0.00125
0.00914
0.02058
0.00339
0.02354
0.04478
0.00515
0.03975
0.06973
0.01264
0.04504
0.05834
0.01036
0.03352
0.05137
0.00125
0.04083
0.05592
0.00012
0.04205
0.05497
0.00012
0.04024
0.04031
0.00125
0.04129
0.05484
0.01036
0.04115
0.05651
0.01264
0.03357
0.05181
0.00515
0.04558
0.05888
0.00339
0.03883
0.06968
0.00125
0.02404
0.04542
0.00047
0.00921
0.02092
-0.00093
0.00142
-0.00380
-0.00858
-0.02080
-0.00628
-0.01637
-0.03042
-0.00018
-0.00411
-0.01148
-0.00024
-0.00396
-0.01187
-0.01457
-0.00342
-0.02591
-0.01294
-0.00308
-0.02663
0.00204
-0.02091
0.00029
-0.02006
0.00125
0.00216
0.00440
0.00086
0.00263
0.00437
0.00118
0.01569
0.02276
0.00028
0.01531
0.02365
0.00274
0.04955
0.02983
0.00415
0.05029
0.02988
0.00593
0.04221
0.06997
0.00563
0.04203
0.06977
0.00710
0.04151
0.05711
0.00607
0.04248
0.05710
-0.00185
0.04205
0.04972
-0.00138
0.04170
0.04991
0.00011
0.05197
0.04122
0.00081
0.05241
0.04070
-0.00048
0.04125
0.04240
0.04160
0.04159
0.00211
-0.02328
-0.02415
0.00125
-0.02286
-0.02343
0.00171
-0.00923
-0.01966
0.00113
-0.00897
-0.02028
-0.00011
-0.00392
-0.00857
0.00023
-0.00287
-0.00946
0.00318
-0.01803
-0.02077
0.00382
-0.01745
-0.02079
-0.00056
-0.01320
-0.00152
-0.01291
0.00087
0.00453
0.00800
0.00018
0.00526
0.00801
0.00263
0.00466
0.03237
0.05012
0.00189
0.00481
0.03261
0.04997
0.01887
0.02773
0.01986
0.02623
0.00934
0.04102
0.06930
0.00925
0.04105
0.06816
0.00796
0.05719
0.04258
0.00818
0.05727
0.04231
-0.00067
-0.00112
0.04071
0.03958
-0.00090
-0.00110
0.04046
0.03941
0.03930
0.04622
0.04027
0.04564
0.03870
0.03939
0.00136
-0.00800
-0.01433
0.00122
-0.00913
-0.01505
0.00173
-0.02479
-0.01614
0.00081
-0.02328
-0.01683
0.00074
-0.00086
-0.00493
-0.00025
0.00002
-0.00343
0.00242
-0.01608
-0.01641
0.00241
-0.01525
-0.01622
0.00042
0.00640
0.00981
0.00038
0.00647
0.00982
0.00252
0.02033
0.02762
0.00267
0.01992
0.02794
-0.00244
0.00302
0.03831
0.03906
-0.00273
0.00204
0.03869
0.03909
0.00419
0.03159
0.04918
0.00520
0.03072
0.04926
-0.00274
0.03774
0.03479
-0.00212
0.03806
0.03502
0.03799
0.06980
0.03831
0.07090
-0.00615
-0.00842
-0.00652
-0.00873
-0.00195
0.03883
0.03742
0.03776
0.03686
0.00141
-0.00674
-0.01066
0.00108
-0.00663
-0.01045
0.00029
-0.02198
-0.01438
-0.00086
-0.02027
-0.01412
0.00001
0.00059
-0.00074
0.00037
0.00052
-0.00094
0.00105
-0.01370
-0.01523
0.00089
-0.01323
-0.01400
0.00103
0.00685
0.01220
0.00042
0.00752
0.01226
0.00373
0.01768
0.02802
0.00368
0.01774
0.02914
0.00301
-0.00364
0.03475
0.03181
0.00266
-0.00357
0.03447
0.03182
0.00672
0.02644
0.04613
0.00666
0.02687
0.04589
0.06481
0.03391
0.06516
0.03298
-0.00235
0.03538
0.03440
-0.00238
0.03533
0.03548
0.03561
0.03594
-0.00754
-0.00810
-0.00793
-0.00791
0.00044
-0.00700
-0.00745
0.00112
-0.00799
-0.00726
-0.00092
-0.01886
-0.01626
-0.00090
-0.01833
-0.01576
0.00012
0.00047
0.00238
0.00002
0.00068
0.00145
0.00037
-0.01536
-0.01176
-0.00036
-0.01468
-0.01197
0.00155
0.00610
0.01373
0.00104
0.00666
0.01381
0.00371
0.01513
0.02596
0.00347
0.01495
0.02550
0.00556
0.00400
0.02709
0.05019
0.00613
0.00392
0.02736
0.04951
0.02113
0.04135
0.02171
0.04163
-0.00248
0.03149
0.03190
-0.00298
0.03266
0.03184
-0.00266
0.03342
0.03198
0.03326
0.03148
-0.00935
-0.01018
0.00025
-0.00713
-0.00629
-0.00032
-0.00655
-0.00579
-0.00395
-0.01802
-0.00530
-0.01555
0.00047
-0.00103
0.00134
0.00059
-0.00061
0.00201
0.00105
0.00357
0.01302
0.00041
0.00427
0.01313
0.00247
0.01083
0.02467
0.00198
0.01164
0.02400
-0.00077
0.01524
0.03658
-0.00062
0.01494
0.03664
-0.00212
-0.01565
-0.01363
-0.00161
-0.01370
-0.01350
-0.00297
0.02801
0.02947
-0.00253
0.02733
0.02953
-0.00272
0.03243
0.02953
-0.00279
0.03181
0.02962
0.03029
0.03093
-0.00059
-0.00729
-0.00718
-0.00135
-0.00748
-0.00710
-0.00654
-0.01452
-0.00737
-0.01594
0.00089
-0.00374
0.00190
0.00001
-0.00308
0.00284
-0.00020
0.00085
0.00944
-0.00023
0.00085
0.00960
0.00520
0.00605
0.01859
0.00590
0.00607
0.01871
-0.00091
-0.01434
-0.01675
-0.00179
-0.01378
-0.01537
-0.00057
0.00830
0.03249
0.00001
0.00754
0.03261
-0.00220
0.02918
0.02544
-0.00329
0.02894
0.02621
-0.00331
0.02867
0.02599
0.02872
0.02606
-0.00157
-0.01251
-0.00665
-0.00149
-0.01213
-0.00636
-0.00107
-0.00447
-0.00087
-0.00123
-0.00511
-0.00059
-0.00744
-0.00896
0.00070
-0.00147
0.00478
0.00061
-0.00144
0.00504
-0.00087
-0.00198
0.01293
-0.00063
-0.00209
0.01391
-0.00598
-0.01827
-0.00604
-0.01776
-0.00289
0.01524
0.02220
-0.00316
0.01556
0.02216
-0.00326
0.02346
0.02147
-0.00299
0.02276
0.02128
0.02121
0.02147
-0.00331
-0.01370
-0.01088
-0.00300
-0.01417
-0.01025
-0.00365
-0.00706
-0.00737
-0.00385
-0.00732
-0.00764
0.00307
-0.00521
-0.00166
0.00218
-0.00453
-0.00125
-0.00218
-0.00568
0.01124
-0.00280
-0.00526
0.01212
-0.00287
0.01973
0.01660
-0.00201
0.01983
0.01710
-0.00280
0.01852
0.01770
0.01844
0.01687
-0.00493
-0.01981
-0.00591
-0.01922
-0.00622
-0.01672
-0.01655
-0.00730
-0.01641
-0.01529
-0.00320
-0.01174
-0.01597
-0.00412
-0.01142
-0.01566
-0.00143
-0.00838
-0.01157
-0.00144
-0.00729
-0.01227
-0.00260
0.00560
0.00894
-0.00309
0.00593
0.00842
-0.00206
0.01282
0.01055
-0.00236
0.01266
0.01080
0.01167
0.01035
-0.00787
-0.00855
-0.00866
-0.00952
-0.00598
-0.00310
-0.01265
-0.01187
-0.00736
-0.00363
-0.01061
-0.01201
-0.01978
-0.01866
-0.00272
0.00254
0.00167
-0.00197
0.00306
0.00190
-0.00243
0.00410
0.00320
0.00348
0.00387
-0.00560
-0.00345
-0.00940
-0.00501
-0.00428
-0.01043
-0.00161
-0.00611
-0.00634
-0.00192
-0.00614
-0.00465
-0.00487
-0.00526
-0.00047
-0.00117
-0.00134
-0.00045
0.00036
0.00550
0.00463
0.00025
0.00582
0.00454
0.00659
0.00221
0.00656
0.00171
-0.00148
-0.00152
0.01150
0.01119
-0.00269
0.01187
0.01042
-0.00309
0.01212
0.01031
-0.00399
-0.00442
0.00663
-0.00400
-0.00407
0.00680
0.01112
0.00591
0.01113
0.00606
-0.00122
-0.00185
0.01616
0.01517
-0.00179
0.01623
0.01497
-0.00196
0.01669
0.01331
-0.00194
0.01664
0.01288
-0.00382
-0.00695
-0.00442
0.00335
-0.00340
-0.00682
-0.00445
0.00311
0.01896
0.01402
0.01881
0.01367
-0.00558
-0.00514
-0.00017
-0.00582
-0.00507
-0.00013
-0.00929
-0.00507
-0.00925
-0.00467
-0.00126
-0.00139
0.01823
0.01798
-0.00153
0.01925
0.01765
-0.00153
0.01941
0.01762
-0.00146
0.02144
0.01685
-0.00115
0.02144
0.01668
-0.00176
0.01596
0.01773
-0.00142
0.01592
0.01746
-0.00480
0.00208
0.00993
-0.00482
0.00215
0.00973
-0.00400
0.00059
0.00478
-0.00389
0.00053
0.00489
-0.00362
-0.00351
-0.00373
-0.00361
-0.00129
-0.00161
0.02043
0.02051
-0.00144
0.02046
0.02056
-0.00217
0.02174
0.01941
-0.00209
0.02185
0.01927
-0.00126
0.02315
0.03019
-0.00114
0.02333
0.03004
-0.00290
0.00672
0.02268
-0.00266
0.00669
0.02252
-0.00297
0.00793
0.01564
-0.00274
0.00792
0.01549
-0.00622
0.00472
0.00857
-0.00593
0.00463
0.00818
-0.00154
-0.00146
0.02357
0.02361
-0.00202
0.02636
0.02234
-0.00200
0.02634
0.02216
0.00089
0.02768
0.02049
0.00097
0.02774
0.02024
-0.00797
-0.00174
-0.00133
-0.00839
-0.00178
-0.00171
0.00332
0.02804
0.03663
0.00340
0.02805
0.03654
0.00005
0.01478
0.02700
0.00016
0.01477
0.02687
-0.00353
-0.00333
-0.00376
-0.00383
-0.00231
0.00943
0.01763
-0.00204
0.00931
0.01747
-0.00350
0.00568
0.00800
-0.00335
0.00578
0.00774
-0.00162
-0.00198
0.02606
0.02491
-0.00212
0.02616
0.02473
-0.00200
0.02821
0.02303
-0.00195
0.02809
0.02299
-0.00084
0.02930
0.04420
-0.00078
0.02928
0.04430
-0.00650
0.00278
0.00033
-0.00666
0.00283
0.00031
-0.00005
0.02360
0.03976
0.00010
0.02354
0.03966
0.00011
0.02011
0.02871
0.00022
0.02006
0.02862
-0.00127
0.01291
0.01782
-0.00113
0.01272
0.01778
-0.00224
-0.00702
-0.00206
-0.00638
-0.00400
0.00933
0.00758
-0.00367
0.00921
0.00761
-0.00185
-0.00175
0.02834
0.02828
-0.00226
0.02945
0.02616
-0.00216
0.02946
0.02633
0.00441
0.03003
0.02438
0.00441
0.03020
0.02447
-0.00731
0.00415
-0.00005
-0.00701
0.00412
-0.00026
0.00403
0.05883
0.03423
0.00394
0.05882
0.03426
0.00135
0.02869
0.04322
0.00155
0.02869
0.04309
0.00059
0.02469
0.02887
0.00082
0.02451
0.02880
-0.00132
0.01573
0.01593
-0.00123
0.01550
0.01564
-0.01126
-0.00353
-0.00623
-0.01099
-0.00338
-0.00609
-0.00242
0.01116
0.00545
-0.00234
0.01093
0.00533
-0.00691
-0.00226
-0.00696
-0.00221
-0.00172
-0.00199
0.03153
0.03043
-0.00190
0.03161
0.03065
-0.00155
0.03237
0.02843
-0.00151
0.03243
0.02832
0.00051
0.00411
0.03757
0.06101
0.00045
0.00420
0.03741
0.06082
0.05595
0.03221
0.05577
0.03214
0.00160
0.03304
0.04355
0.00182
0.03307
0.04373
0.00048
0.02812
0.02760
0.00051
0.02813
0.02756
-0.00393
0.00542
-0.00254
-0.00346
0.00519
-0.00252
-0.00064
0.01769
0.01317
-0.00042
0.01772
0.01312
-0.00875
-0.00057
-0.00530
-0.00856
-0.00071
-0.00539
-0.00071
0.01214
0.00129
-0.00052
0.01201
0.00126
-0.00800
-0.00307
-0.00803
-0.00345
-0.00160
-0.00161
0.03306
0.03302
-0.00135
0.03472
0.03134
-0.00125
0.03447
0.03122
0.00845
0.00849
0.07884
0.03697
0.00840
0.00852
0.07894
0.03695
0.00461
0.03977
0.06366
0.00477
0.03990
0.06364
0.03551
0.03354
0.03559
0.03347
0.00202
0.03805
0.04315
0.00197
0.03792
0.04311
0.00038
0.03155
0.02470
0.00052
0.03143
0.02467
-0.00237
0.00595
-0.00567
-0.00220
0.00580
-0.00571
-0.00027
0.01726
0.00790
-0.00002
0.01719
0.00811
-0.00687
-0.00141
-0.00639
-0.00680
-0.00154
-0.00668
0.00040
0.01101
-0.00381
0.00044
0.01097
-0.00391
-0.00083
-0.00100
0.03731
0.03639
-0.00106
0.03730
0.03641
-0.00966
-0.00289
-0.00968
-0.00294
0.00883
0.00578
0.03814
0.07604
0.00897
0.00567
0.03800
0.07589
-0.00102
0.04166
0.03770
-0.00087
0.04170
0.03762
0.00449
0.04365
0.06386
0.00455
0.04363
0.06384
0.03707
0.05525
0.03720
0.05531
0.00211
0.04124
0.04010
0.00215
0.04101
0.03993
0.00004
0.03101
0.02061
0.00025
0.03082
0.02061
-0.00035
0.00384
-0.00937
-0.00027
0.00346
-0.00939
0.00050
0.01556
0.00393
0.00060
0.01546
0.00391
-0.00355
-0.00434
-0.00982
-0.00342
-0.00451
-0.00968
0.00229
0.00859
-0.00823
0.00231
0.00849
-0.00821
0.00017
0.00002
0.03893
0.03895
0.00072
0.01257
0.04018
0.04667
0.00073
0.01270
0.04013
0.04663
0.03929
0.04874
0.03931
0.04890
0.01557
0.03989
0.05080
0.01561
0.03977
0.05067
0.00907
0.04005
0.07427
0.00911
0.04012
0.07425
0.00428
0.00209
0.03916
0.03868
0.00423
0.00214
0.03913
0.03870
0.04564
0.06358
0.04575
0.06365
0.00013
0.02758
0.01703
0.00043
0.02729
0.01705
-0.01018
-0.00179
-0.01029
-0.00154
0.00052
0.00220
-0.01394
0.00037
0.00242
-0.01384
0.00166
0.01090
-0.00007
0.00151
0.01081
-0.00003
0.00022
0.00408
-0.00882
0.00041
0.00396
-0.00859
-0.00039
-0.00542
-0.01837
-0.00032
-0.00550
-0.01823
0.00091
0.00072
0.05323
0.03932
0.00074
0.03927
0.05320
0.00017
0.05314
0.04023
0.00026
0.04020
0.05302
0.01062
0.05322
0.04015
0.01043
0.04024
0.05308
0.01346
0.05086
0.04232
0.01347
0.04223
0.05100
0.00728
0.07630
0.04484
0.00751
0.04489
0.07633
0.00402
0.06012
0.04600
0.00403
0.04611
0.06013
0.00160
0.03526
0.03391
0.00164
0.03411
0.03528
0.00115
0.01477
0.02055
0.00121
0.02050
0.01481
-0.00708
-0.00092
-0.00736
-0.00092
-0.00116
-0.00079
-0.01656
-0.00099
-0.00079
-0.01656
-0.00004
0.00533
0.00256
0.00524
0.00008
0.00256
-0.00079
-0.00736
-0.01823
0.00008
-0.00099
-0.00859
0.00138
0.00524
0.01481
0.00290
0.02050
0.03528
0.00625
0.03411
0.06013
0.01020
0.04611
0.07633
0.00846
0.04489
0.05100
-0.00102
0.04223
0.05308
0.00013
0.04024
0.05302
0.00060
0.04020
0.05320
0.00060
0.03927
0.03932
0.00013
0.04023
0.05323
-0.00102
0.04015
0.05314
0.00846
0.04232
0.05322
0.01020
0.04484
0.05086
0.00625
0.04600
0.07630
0.00290
0.03391
0.06012
0.00138
0.02055
0.03526
0.00533
0.01477
-0.00004
-0.00079
-0.00882
-0.00116
-0.00708
-0.01837
0.00121
0.00396
-0.00003
0.00115
0.00408
-0.00007
-0.00550
0.00041
-0.01384
-0.00542
0.00022
-0.01394
-0.00032
-0.00154
-0.00039
-0.00179
0.00164
0.01081
0.01705
0.00160
0.01090
0.01703
0.00403
0.02729
0.03870
0.00402
0.02758
0.03868
0.00751
0.06365
0.03913
0.00728
0.06358
0.03916
0.01347
0.04575
0.07425
0.01346
0.04564
0.07427
0.01043
0.04012
0.05067
0.01062
0.04005
0.05080
0.00026
0.03977
0.04663
0.00017
0.03989
0.04667
0.00074
0.04890
0.04013
0.00072
0.04874
0.04018
0.00091
0.03931
0.03895
0.03929
0.03893
0.00242
-0.01029
-0.00968
0.00220
-0.01018
-0.00982
0.00151
0.00037
-0.00821
0.00166
0.00052
-0.00823
0.00043
0.00849
0.00391
0.00013
0.00859
0.00393
0.00231
-0.00451
-0.00939
0.00229
-0.00434
-0.00937
-0.00342
-0.00294
-0.00355
-0.00289
0.00214
0.01546
0.02061
0.00209
0.01556
0.02061
0.00423
0.00911
0.03993
0.06384
0.00428
0.00907
0.04010
0.06386
0.03082
0.04101
0.03101
0.04124
0.01561
0.04363
0.07589
0.01557
0.04365
0.07604
0.01270
0.05531
0.03800
0.01257
0.05525
0.03814
0.00073
0.00002
0.03762
0.03641
0.00072
0.00017
0.03770
0.03639
0.03720
0.04170
0.03707
0.04166
0.03730
0.03731
0.00060
0.00346
-0.00391
0.00050
0.00384
-0.00381
-0.00027
-0.00968
-0.00668
-0.00035
-0.00966
-0.00639
0.00025
0.01097
0.00811
0.00004
0.01101
0.00790
0.00044
-0.00154
-0.00571
0.00040
-0.00141
-0.00567
0.00215
0.01719
0.02467
0.00211
0.01726
0.02470
0.00455
0.03143
0.04311
0.00449
0.03155
0.04315
-0.00087
0.00567
0.03347
0.03695
-0.00102
0.00578
0.03354
0.03697
0.00897
0.03792
0.06364
0.00883
0.03805
0.06366
-0.00106
0.03559
0.03122
-0.00100
0.03551
0.03134
0.03990
0.07894
0.03977
0.07884
-0.00680
-0.00345
-0.00687
-0.00307
-0.00083
0.03447
0.03302
0.03472
0.03306
-0.00002
0.00580
0.00126
-0.00027
0.00595
0.00129
-0.00220
-0.00803
-0.00539
-0.00237
-0.00800
-0.00530
0.00052
0.01201
0.01312
0.00038
0.01214
0.01317
-0.00052
-0.00071
-0.00252
-0.00071
-0.00057
-0.00254
0.00197
0.01772
0.02756
0.00202
0.01769
0.02760
0.00477
0.02813
0.04373
0.00461
0.02812
0.04355
0.00852
-0.00125
0.03214
0.02832
0.00849
-0.00135
0.03221
0.02843
0.00840
0.03307
0.06082
0.00845
0.03304
0.06101
0.05577
0.03741
0.05595
0.03757
-0.00161
0.03243
0.03065
-0.00160
0.03237
0.03043
0.03161
0.03153
-0.00856
-0.00221
-0.00875
-0.00226
-0.00042
0.00519
0.00533
-0.00064
0.00542
0.00545
-0.00346
-0.00696
-0.00609
-0.00393
-0.00691
-0.00623
0.00051
0.01093
0.01564
0.00048
0.01116
0.01593
-0.00234
-0.00338
-0.00026
-0.00242
-0.00353
-0.00005
0.00182
0.01550
0.02880
0.00160
0.01573
0.02887
0.00420
0.02451
0.04309
0.00411
0.02469
0.04322
0.00045
-0.00151
0.03426
0.02447
0.00051
-0.00155
0.03423
0.02438
0.02869
0.05882
0.02869
0.05883
-0.00190
0.03020
0.02633
-0.00199
0.03003
0.02616
-0.00172
0.02946
0.02828
0.02945
0.02834
-0.01099
-0.01126
-0.00123
0.00412
0.00761
-0.00132
0.00415
0.00758
-0.00701
-0.00638
-0.00731
-0.00702
0.00082
0.00921
0.01778
0.00059
0.00933
0.01782
0.00155
0.01272
0.02862
0.00135
0.01291
0.02871
0.00394
0.02006
0.03966
0.00403
0.02011
0.03976
0.00441
0.02354
0.04430
0.00441
0.02360
0.04420
-0.00367
-0.00206
0.00031
-0.00400
-0.00224
0.00033
-0.00216
0.02928
0.02299