# vtk DataFile Version 3.0
Point representing Sub_cellular elem model
ASCII

DATASET UNSTRUCTURED_GRID
POINTS 3657 float
-53.18337 -3.03716 53.07816 
-53.15871 3.25604 53.11562 
-52.79079 -9.28766 52.71103 
-52.77893 9.55384 52.78426 
-50.00382 0.05886 56.91227 
-49.69135 -6.11098 56.62005 
-49.71828 6.25116 56.60439 
-50.10437 -16.98838 53.20277 
-49.97984 17.13663 53.29018 
-49.42142 -12.15744 56.10123 
-49.29047 12.35509 56.23294 
-46.22911 -3.03404 59.85469 
-46.25613 3.12570 59.84696 
-45.96577 -9.18579 59.55315 
-45.95130 9.21689 59.58538 
-46.40971 -20.03112 56.50565 
-46.32787 20.17254 56.54177 
-45.72207 -15.02858 58.63231 
-45.63753 15.09411 58.72266 
-47.03443 -24.55795 53.11580 
-46.95470 24.90551 53.39422 
-47.08953 -29.36636 49.83383 
-46.93497 29.71405 50.02892 
-42.72321 -0.00447 62.62853 
-42.65564 -6.14252 62.61232 
-42.64260 6.15204 62.63644 
-42.20849 -12.02504 61.97828 
-42.17218 12.06522 62.06127 
-42.04264 -17.94239 61.13137 
-41.99390 17.95502 61.21627 
-42.64174 -22.93182 58.69451 
-42.57006 23.03986 58.82113 
-43.34327 -27.86056 56.15310 
-43.21398 28.08085 56.29908 
-42.66736 -33.41216 53.33846 
-42.41182 33.67769 53.38183 
-39.06086 -3.03502 65.02682 
-39.02790 3.07337 65.05235 
-38.76207 -8.99238 64.76553 
-38.73404 8.96692 64.76884 
-38.34078 -14.71656 64.18028 
-38.32142 14.73578 64.22286 
-38.15809 -20.52543 62.99668 
-38.12880 20.60777 63.05394 
-38.81580 -25.56534 60.89626 
-38.70002 25.69057 61.01257 
-38.40926 -31.16830 58.62108 
-38.28402 31.28358 58.76960 
-35.58670 0.01197 67.39130 
-35.34840 -5.87155 67.11738 
-35.27466 5.87397 67.16109 
-34.88036 -11.76019 66.96603 
-34.87834 11.77705 66.98694 
-37.69319 -36.65645 55.96756 
-37.53692 36.81796 56.24986 
-34.50637 -17.48535 66.04232 
-34.52699 17.47931 66.07603 
-34.38557 -23.14601 64.84245 
-34.32837 23.15938 64.93293 
-37.03808 -41.42530 51.84748 
-36.88937 41.75944 52.18327 
-34.01485 -28.65261 62.88148 
-33.87362 28.70292 63.03218 
-33.47525 -34.29244 60.75612 
-33.33093 34.32872 60.92826 
-31.12287 -3.12399 69.52428 
-31.08369 3.07466 69.54941 
-30.69371 -9.00752 69.26905 
-30.70432 9.03530 69.31611 
-30.10435 -14.74169 68.82417 
-30.08433 14.72148 68.86456 
-32.61275 -39.62655 57.55992 
-32.49351 39.72093 57.71764 
-29.87837 -20.51206 67.79552 
-29.86342 20.44439 67.85717 
-30.37618 -25.56155 66.03777 
-30.29094 25.52432 66.15389 
-29.82689 -31.12932 64.09337 
-29.72225 31.15419 64.20462 
-31.90767 -44.67425 54.04557 
-31.53003 44.89315 54.33860 
-29.20218 -36.62170 61.62534 
-29.04150 36.69224 61.71951 
-26.58527 -0.01134 71.57623 
-26.58740 -6.24603 71.57522 
-26.56103 6.22754 71.59531 
-25.84802 -12.19576 71.06724 
-25.77756 12.13814 71.08080 
-28.26768 -41.97819 58.57387 
-28.12661 42.02879 58.71602 
-25.54125 -17.89994 70.43210 
-25.49743 17.82943 70.49351 
-25.86428 -22.91940 68.89160 
-25.81403 22.89762 68.96227 
-26.29738 -28.00797 67.22800 
-26.23649 28.03039 67.29973 
-25.61491 -33.47843 64.96557 
-25.55281 33.51451 65.07747 
-27.19387 -47.13206 54.75806 
-26.95736 47.23970 54.81484 
-24.86397 -39.01317 62.51348 
-24.73270 39.07627 62.60693 
-26.31316 -51.22140 49.62597 
-25.99712 51.49395 49.78672 
-22.04299 -3.14545 73.28624 
-21.98100 3.12890 73.26837 
-21.72638 -9.31618 72.93606 
-21.71629 9.33889 72.94482 
-21.49954 -20.18655 71.25939 
-21.49003 20.17735 71.32177 
-21.18636 -15.07315 72.35448 
-21.11043 15.09477 72.39937 
-21.83867 -25.29202 69.74768 
-21.75513 25.29601 69.78450 
-22.08160 -30.27878 67.81210 
-22.02574 30.32861 67.85982 
-23.67283 -44.36445 59.09483 
-23.52103 44.46575 59.15705 
-21.34794 -35.73851 65.52228 
-21.21795 35.79992 65.58929 
-22.59408 -49.60939 54.96455 
-22.37871 49.70988 55.07747 
-20.24344 -41.25454 62.64798 
-20.09613 41.27635 62.75253 
-21.25249 -53.87383 49.93736 
-20.90556 54.03780 50.10925 
-17.49548 -0.01402 74.90216 
-17.30357 -6.22537 74.55370 
-17.32406 6.19956 74.55105 
-17.24904 -17.47359 73.16022 
-17.16699 17.46200 73.20430 
-17.50175 -22.60668 72.04181 
-17.46267 22.59748 72.08082 
-17.08861 -12.35942 74.14035 
-17.02931 12.31830 74.17067 
-17.65669 -27.59278 70.26471 
-17.63781 27.59180 70.30669 
-17.89119 -32.55712 68.31708 
-17.83139 32.60237 68.35727 
-18.98528 -46.59986 59.14430 
-18.88415 46.62411 59.22930 
-16.81513 -37.98749 65.70282 
-16.64722 38.00815 65.77991 
-17.68370 -51.56834 54.90258 
-17.47515 51.66041 54.98167 
-15.56073 -43.47927 62.85985 
-15.43133 43.52241 62.91528 
-13.00011 -3.17484 75.72489 
-12.96168 3.14975 75.76974 
-16.16790 -55.96696 49.95244 
-15.80696 56.13850 50.15139 
-13.06352 -19.79593 73.72080 
-13.04098 19.79806 73.74005 
-12.81475 -9.42025 75.35408 
-12.81107 9.34598 75.36105 
-13.19725 -24.85803 72.27942 
-13.13670 24.81588 72.32316 
-12.82372 -14.67326 74.71848 
-12.76618 14.61927 74.74794 
-13.27309 -29.86954 70.45357 
-13.24436 29.82107 70.51194 
-13.61006 -34.61541 68.22590 
-13.50591 34.58745 68.29841 
-14.16792 -48.59006 59.09921 
-14.08633 48.63468 59.14626 
-12.29979 -40.02671 65.57920 
-12.24033 40.04908 65.57408 
-12.87738 -53.56947 54.88863 
-12.60757 53.65253 54.94093 
-10.98712 -45.34545 62.34140 
-10.78820 45.39974 62.43170 
-8.63521 -0.00259 76.54378 
-8.57155 -11.68097 75.85709 
-8.54732 11.67460 75.84298 
-8.58097 -6.34949 76.49634 
-8.52361 6.33558 76.50797 
-8.68548 -16.85867 75.19692 
-8.64775 16.85452 75.21266 
-8.82123 -21.92478 73.88864 
-8.73122 21.93370 73.91090 
-8.95676 -31.79070 70.33777 
-8.87406 31.84617 70.37795 
-8.80531 -27.03862 72.42799 
-8.74919 27.03433 72.45148 
-9.15357 -36.61894 68.16500 
-9.09766 36.69751 68.15856 
-10.17867 -57.17639 51.09393 
-9.78864 57.19965 51.06955 
-9.51992 -50.46144 58.61129 
-9.41118 50.46002 58.67954 
-7.80359 -41.91428 65.12834 
-7.68180 41.96180 65.14277 
-6.31673 -47.18413 62.03047 
-6.08850 47.25558 62.02884 
-6.62973 -54.09713 55.59958 
-6.41356 54.09575 55.65701 
-4.24432 -3.17264 77.00255 
-4.19689 3.20302 77.00959 
-4.29706 -8.58459 76.62494 
-4.25810 8.57654 76.62876 
-4.30271 -13.90898 76.00350 
-4.27033 13.88175 76.03702 
-4.39675 -18.95651 75.11615 
-4.36228 18.98162 75.11668 
-4.40118 -23.95756 73.78566 
-4.30752 23.99795 73.78326 
-4.41169 -28.82271 72.07397 
-4.38210 28.78000 72.07235 
-4.52494 -33.58825 69.96839 
-4.48005 33.61004 69.97409 
-4.64432 -38.37184 67.54673 
-4.56541 38.41764 67.54051 
-3.58489 -57.57202 52.03477 
-3.26523 57.59443 52.01468 
-3.30470 -50.77139 59.23908 
-3.12636 50.80586 59.17687 
-3.10452 -43.60980 64.55242 
-2.94552 43.63643 64.55384 
-0.10483 -54.36191 56.24101 
-0.09144 -47.31380 62.06038 
-0.05400 -40.03037 66.93665 
-0.01626 -35.25733 69.34100 
0.00731 -30.51276 71.64726 
-0.05420 -25.61577 73.37751 
-0.01251 -20.87122 74.91935 
-0.00348 -15.87185 75.86412 
-0.00454 -10.75166 76.69248 
-0.04179 -5.34872 77.05055 
0.00000 0.00000 77.34466 
0.04179 5.34872 77.05055 
0.00454 10.75166 76.69248 
0.00348 15.87185 75.86412 
0.01251 20.87122 74.91935 
0.05420 25.61577 73.37751 
-0.00731 30.51276 71.64726 
0.01626 35.25733 69.34100 
0.05400 40.03037 66.93665 
0.09144 47.31380 62.06038 
0.10483 54.36191 56.24101 
2.94552 -43.63643 64.55384 
3.10452 43.60980 64.55242 
3.12636 -50.80586 59.17687 
3.30470 50.77139 59.23908 
3.26523 -57.59443 52.01468 
3.58489 57.57202 52.03477 
4.56541 -38.41764 67.54051 
4.64432 38.37184 67.54673 
4.48005 -33.61004 69.97409 
4.52494 33.58825 69.96839 
4.38210 -28.78000 72.07235 
4.41169 28.82271 72.07397 
4.30752 -23.99795 73.78326 
4.40118 23.95756 73.78566 
4.36228 -18.98162 75.11668 
4.39675 18.95651 75.11615 
4.27033 -13.88175 76.03702 
4.30271 13.90898 76.00350 
4.25810 -8.57654 76.62876 
4.29706 8.58459 76.62494 
4.19689 -3.20302 77.00959 
4.24432 3.17264 77.00255 
6.41356 -54.09575 55.65701 
6.62973 54.09713 55.59958 
6.08850 -47.25558 62.02884 
6.31673 47.18413 62.03047 
7.68180 -41.96180 65.14277 
7.80359 41.91428 65.12834 
9.41118 -50.46002 58.67954 
9.51992 50.46144 58.61129 
9.78864 -57.19965 51.06955 
10.17867 57.17639 51.09393 
9.09766 -36.69751 68.15856 
9.15357 36.61894 68.16500 
8.74919 -27.03433 72.45148 
8.80531 27.03862 72.42799 
8.87406 -31.84617 70.37795 
8.95676 31.79070 70.33777 
8.73122 -21.93370 73.91090 
8.82123 21.92478 73.88864 
8.64775 -16.85452 75.21266 
8.68548 16.85867 75.19692 
8.52361 -6.33558 76.50797 
8.58097 6.34949 76.49634 
8.54732 -11.67460 75.84298 
8.57155 11.68097 75.85709 
8.63521 0.00259 76.54378 
10.78820 -45.39974 62.43170 
10.98712 45.34545 62.34140 
12.60757 -53.65253 54.94093 
12.87738 53.56947 54.88863 
12.24033 -40.04908 65.57408 
12.29979 40.02671 65.57920 
14.08633 -48.63468 59.14626 
14.16792 48.59006 59.09921 
13.50591 -34.58745 68.29841 
13.61006 34.61541 68.22590 
13.24436 -29.82107 70.51194 
13.27309 29.86954 70.45357 
12.76618 -14.61927 74.74794 
12.82372 14.67326 74.71848 
13.13670 -24.81588 72.32316 
13.19725 24.85803 72.27942 
12.81107 -9.34598 75.36105 
12.81475 9.42025 75.35408 
13.04098 -19.79806 73.74005 
13.06352 19.79593 73.72080 
15.80696 -56.13850 50.15139 
16.16790 55.96696 49.95244 
12.96168 -3.14975 75.76974 
13.00011 3.17484 75.72489 
15.43133 -43.52241 62.91528 
15.56073 43.47927 62.85985 
17.47515 -51.66041 54.98167 
17.68370 51.56834 54.90258 
16.64722 -38.00815 65.77991 
16.81513 37.98749 65.70282 
18.88415 -46.62411 59.22930 
18.98528 46.59986 59.14430 
17.83139 -32.60237 68.35727 
17.89119 32.55712 68.31708 
17.63781 -27.59180 70.30669 
17.65669 27.59278 70.26471 
17.02931 -12.31830 74.17067 
17.08861 12.35942 74.14035 
17.46267 -22.59748 72.08082 
17.50175 22.60668 72.04181 
17.16699 -17.46200 73.20430 
17.24904 17.47359 73.16022 
17.32406 -6.19956 74.55105 
17.30357 6.22537 74.55370 
17.49548 0.01402 74.90216 
20.90556 -54.03780 50.10925 
21.25249 53.87383 49.93736 
20.09613 -41.27635 62.75253 
20.24344 41.25454 62.64798 
22.37871 -49.70988 55.07747 
22.59408 49.60939 54.96455 
21.21795 -35.79992 65.58929 
21.34794 35.73851 65.52228 
23.52103 -44.46575 59.15705 
23.67283 44.36445 59.09483 
22.02574 -30.32861 67.85982 
22.08160 30.27878 67.81210 
21.75513 -25.29601 69.78450 
[...]
CELL_DATA 40900
SCALARS Strain double 1
LOOKUP_TABLE default
0.01172
0.00801
-0.06039
-0.04843
0.00882
-0.06005
-0.05140
-0.07528
-0.06194
-0.07350
-0.05938
0.01195
0.01221
0.00949
0.00940
0.01406
0.00900
0.00442
0.01613
0.00940
0.00474
-0.02655
-0.10090
-0.13257
-0.02853
-0.10290
-0.13236
-0.00160
-0.01994
-0.00270
-0.02383
0.00757
0.00973
0.06981
0.06503
0.00801
0.07077
0.06645
0.00526
0.07404
0.05580
0.00571
0.07371
0.05903
-0.01932
-0.05931
-0.10121
-0.04214
-0.01774
-0.05221
-0.09986
-0.04394
0.00729
-0.00780
0.00596
-0.00874
-0.06235
-0.12787
-0.08354
-0.06205
-0.12772
-0.08711
-0.15626
-0.10943
-0.15633
-0.11164
0.00310
0.00435
0.11174
0.11353
0.00427
0.11388
0.09806
0.00498
0.11395
0.09725
0.00784
0.11766
0.10456
0.00628
0.11336
0.10425
-0.02483
-0.04201
0.06411
-0.02286
-0.04262
0.06526
-0.03496
-0.06633
0.00006
-0.03223
-0.06725
0.00193
-0.03579
-0.09702
-0.04068
-0.03419
-0.09586
-0.04177
-0.12868
-0.07714
-0.12762
-0.08060
-0.00106
0.00273
0.15632
0.14259
0.00077
0.15417
0.14415
0.01616
0.15276
0.13743
0.01699
0.15528
0.13898
0.01795
0.10237
0.14297
0.01894
0.10093
0.14227
-0.01413
-0.01516
0.09179
-0.01305
-0.01561
0.09168
-0.01011
-0.03806
0.04537
-0.01051
-0.03875
0.04531
-0.02639
-0.06540
-0.00677
-0.02515
-0.06393
-0.00663
-0.00248
-0.00323
0.18208
0.18470
0.00090
0.22477
0.17316
0.00147
0.22212
0.17290
0.02044
0.21279
0.25843
0.01954
0.21462
0.26004
-0.06810
-0.10277
-0.03446
-0.06360
-0.10226
-0.03516
0.01992
0.06346
0.20166
0.02112
0.06483
0.20239
0.00618
0.03959
0.15432
0.00752
0.03848
0.15490
-0.13916
-0.07197
-0.13937
-0.06955
-0.00614
-0.01206
0.08634
-0.00723
-0.01215
0.08647
-0.02999
-0.03702
0.03434
-0.02935
-0.03763
0.03808
-0.00360
-0.00446
0.22789
0.22030
-0.00170
0.22668
0.21935
0.03264
0.27127
0.18790
0.03223
0.26775
0.18747
0.04314
0.24496
0.31462
0.04208
0.24375
0.31657
-0.05430
-0.07904
-0.01657
-0.04849
-0.07709
-0.01603
0.01100
0.12480
0.25656
0.01103
0.12576
0.25694
0.01053
0.08130
0.16203
0.01177
0.08040
0.16194
-0.00952
0.01079
0.09843
-0.00830
0.01010
0.09636
-0.11883
-0.03869
-0.12167
-0.04447
-0.02352
-0.02121
0.03417
-0.02514
-0.02293
0.03299
-0.00260
-0.00253
0.24827
0.24837
-0.00216
0.25494
0.22253
-0.00343
0.25242
0.22090
0.02741
0.28632
0.42173
0.02688
0.28882
0.41829
-0.05347
-0.06874
-0.00098
-0.05210
-0.06863
0.00250
0.03822
0.41932
0.22155
0.03883
0.41315
0.22556
0.01462
0.17543
0.27616
0.01511
0.17399
0.27884
0.01068
0.11644
0.19180
0.00899
0.11859
0.19199
-0.00707
0.03633
0.09854
-0.00627
0.03661
0.10314
-0.10006
-0.11419
-0.02591
-0.09650
-0.11546
-0.02669
-0.02481
-0.00421
0.04278
-0.02390
-0.00339
0.04380
-0.15519
-0.02604
-0.15659
-0.02844
-0.00140
-0.00124
0.29563
0.27588
0.00004
0.29477
0.27490
0.04503
0.29732
0.26369
0.04602
0.29407
0.26856
0.05746
0.03859
0.30031
0.42168
0.05451
0.03961
0.30277
0.42449
0.58968
0.33104
0.59362
0.32578
0.02135
0.23017
0.29487
0.02140
0.22806
0.29108
0.00874
0.14709
0.16989
0.00888
0.14612
0.17025
-0.04731
-0.05941
-0.00475
-0.04790
-0.05685
-0.00698
-0.00240
0.04734
0.08569
-0.00405
0.04549
0.08701
-0.09267
-0.10722
-0.02352
-0.09062
-0.10741
-0.02323
-0.01671
-0.00092
0.01458
-0.01749
-0.00011
0.01515
-0.15341
-0.02272
-0.15631
-0.02206
0.00083
0.00088
0.28133
0.28592
-0.00192
0.31289
0.27231
-0.00245
0.31939
0.27588
0.05713
0.04437
0.65207
0.36960
0.05694
0.04488
0.64467
0.36426
0.04534
0.35758
0.47123
0.04461
0.35637
0.47473
0.32689
0.33064
0.32077
0.33109
0.01784
0.27459
0.28904
0.01873
0.27564
0.29076
0.00879
0.17372
0.16951
0.00806
0.17256
0.17178
-0.04386
-0.05986
-0.01963
-0.04165
-0.05897
-0.01912
-0.00147
0.05096
0.06746
-0.00202
0.05022
0.06580
-0.08843
-0.11195
-0.03866
-0.08638
-0.11245
-0.03634
-0.01215
0.00327
0.00104
-0.01251
0.00349
0.00238
0.00114
0.00069
0.32275
0.31714
-0.00070
0.31906
0.31594
-0.15957
-0.06685
-0.16256
-0.06550
0.06364
0.04436
0.39438
0.66388
0.06068
0.04662
0.39511
0.66892
-0.00082
0.40691
0.34760
-0.00054
0.40167
0.35551
0.03984
0.37974
0.46034
0.03921
0.38438
0.45733
0.35995
0.58165
0.35826
0.57414
0.01879
0.28595
0.28381
0.01813
0.28324
0.28724
0.00542
0.17144
0.13834
0.00654
0.17205
0.13614
-0.03598
-0.05606
-0.04143
-0.03314
-0.05380
-0.04180
-0.00005
0.04294
0.03564
0.00031
0.04285
0.03710
-0.04035
-0.11394
-0.10393
-0.03784
-0.11311
-0.10576
0.00039
-0.00922
-0.03694
-0.00136
-0.00961
-0.03525
-0.00011
0.00012
0.33672
0.33829
-0.00052
0.05760
0.34874
0.46645
0.00049
0.05569
0.35077
0.47207
0.33995
0.46212
0.34207
0.45903
0.09041
0.37961
0.57340
0.09017
0.37933
0.57121
0.05500
0.41217
0.64163
0.05474
0.40850
0.63801
0.03404
0.00815
0.26428
0.26213
0.03444
0.00848
0.25846
0.26206
0.36666
0.48061
0.37133
0.48320
0.00222
0.14602
0.11629
0.00069
0.14643
0.11713
-0.15322
-0.12395
-0.15268
-0.12577
-0.06374
0.00091
-0.10715
-0.06451
0.00117
-0.10452
0.00435
0.03327
0.01025
0.00506
0.03268
0.01111
-0.01157
-0.01531
-0.07175
-0.01201
-0.01432
-0.07286
-0.01436
-0.09502
-0.14625
-0.01136
-0.09682
-0.14671
-0.00078
0.00323
0.51088
0.33887
0.00158
0.33408
0.51658
-0.00012
0.51788
0.33737
-0.00116
0.34181
0.51307
0.05621
0.53626
0.34464
0.05948
0.34477
0.53373
0.08359
0.57665
0.31568
0.08427
0.31418
0.57828
0.05290
0.68039
0.41037
0.05020
0.40193
0.68942
0.01764
0.43930
0.33074
0.01881
0.33777
0.43433
0.00360
0.23248
0.21954
0.00406
0.21630
0.23277
0.00168
0.08075
0.10737
0.00152
0.10640
0.08120
-0.11856
-0.14666
-0.11725
-0.14666
-0.04390
-0.04581
-0.12035
-0.04372
-0.04690
-0.12035
-0.00838
0.00852
-0.01273
0.00853
-0.00960
-0.01273
-0.04690
-0.11725
-0.14671
-0.00960
-0.04372
-0.07286
-0.00425
0.00853
0.08120
0.01101
0.10640
0.23277
0.03549
0.21630
0.43433
0.07731
0.33777
0.68942
0.09413
0.40193
0.57828
0.07857
0.31418
0.53373
0.00184
0.34477
0.51307
-0.00061
0.34181
0.51658
-0.00061
0.33408
0.33887
0.00184
0.33737
0.51088
0.07857
0.34464
0.51788
0.09413
0.31568
0.53626
0.07731
0.41037
0.57665
0.03549
0.33074
0.68039
0.01101
0.21954
0.43930
-0.00425
0.10737
0.23248
0.00852
0.08075
-0.00838
-0.04581
-0.07175
-0.04390
-0.11856
-0.14625
0.00152
-0.01432
0.01111
0.00168
-0.01531
0.01025
-0.09682
-0.01201
-0.10452
-0.09502
-0.01157
-0.10715
-0.01136
-0.12577
-0.01436
-0.12395
0.00406
0.03268
0.11713
0.00360
0.03327
0.11629
0.01881
0.14643
0.26206
0.01764
0.14602
0.26213
0.05020
0.48320
0.25846
0.05290
0.48061
0.26428
0.08427
0.37133
0.63801
0.08359
0.36666
0.64163
0.05948
0.40850
0.57121
0.05621
0.41217
0.57340
-0.00116
0.37933
0.47207
-0.00012
0.37961
0.46645
0.00158
0.45903
0.35077
0.00323
0.46212
0.34874
-0.00078
0.34207
0.33829
0.33995
0.33672
0.00117
-0.15268
-0.10576
0.00091
-0.15322
-0.10393
0.00506
-0.06451
-0.03525
0.00435
-0.06374
-0.03694
0.00069
-0.00961
0.03710
0.00222
-0.00922
0.03564
-0.00136
-0.11311
-0.04180
0.00039
-0.11394
-0.04143
-0.03784
-0.06550
-0.04035
-0.06685
0.00848
0.04285
0.13614
0.00815
0.04294
0.13834
0.03444
0.05474
0.28724
0.45733
0.03404
0.05500
0.28381
0.46034
0.17205
0.28324
0.17144
0.28595
0.09017
0.38438
0.66892
0.09041
0.37974
0.66388
0.05569
0.57414
0.39511
0.05760
0.58165
0.39438
0.00049
0.00012
0.35551
0.31594
-0.00052
-0.00011
0.34760
0.31714
0.35826
0.40167
0.35995
0.40691
0.31906
0.32275
0.00031
-0.05380
0.00238
-0.00005
-0.05606
0.00104
-0.03314
-0.16256
-0.03634
-0.03598
-0.15957
-0.03866
0.00654
0.00349
0.06580
0.00542
0.00327
0.06746
-0.01251
-0.11245
-0.01912
-0.01215
-0.11195
-0.01963
0.01813
0.05022
0.17178
0.01879
0.05096
0.16951
0.03921
0.17256
0.29076
0.03984
0.17372
0.28904
-0.00054
0.04662
0.33109
0.36426
-0.00082
0.04436
0.33064
0.36960
0.06068
0.27564
0.47473
0.06364
0.27459
0.47123
-0.00070
0.32077
0.27588
0.00069
0.32689
0.27231
0.35637
0.64467
0.35758
0.65207
-0.08638
-0.02206
-0.08843
-0.02272
0.00114
0.31939
0.28592
0.31289
0.28133
-0.00202
-0.05897
0.01515
-0.00147
-0.05986
0.01458
-0.04165
-0.15631
-0.02323
-0.04386
-0.15341
-0.02352
0.00806
-0.00011
0.08701
0.00879
-0.00092
0.08569
-0.01749
-0.10741
-0.00698
-0.01671
-0.10722
-0.00475
0.01873
0.04549
0.17025
0.01784
0.04734
0.16989
0.04461
0.14612
0.29108
0.04534
0.14709
0.29487
0.04488
-0.00245
0.32578
0.26856
0.04437
-0.00192
0.33104
0.26369
0.05694
0.22806
0.42449
0.05713
0.23017
0.42168
0.59362
0.30277
0.58968
0.30031
0.00088
0.29407
0.27490
0.00083
0.29732
0.27588
0.29477
0.29563
-0.09062
-0.02844
-0.09267
-0.02604
-0.00405
-0.05685
0.04380
-0.00240
-0.05941
0.04278
-0.04790
-0.15659
-0.02669
-0.04731
-0.15519
-0.02591
0.00888
-0.00339
0.10314
0.00874
-0.00421
0.09854
-0.02390
-0.11546
0.00250
-0.02481
-0.11419
-0.00098
0.02140
0.03661
0.19199
0.02135
0.03633
0.19180
0.03961
0.11859
0.27884
0.03859
0.11644
0.27616
0.05451
0.04602
0.22556
0.41829
0.05746
0.04503
0.22155
0.42173
0.17399
0.41315
0.17543
0.41932
0.00004
0.28882
0.22090
-0.00124
0.28632
0.22253
-0.00140
0.25242
0.24837
0.25494
0.24827
-0.09650
-0.10006
-0.00627
-0.06863
0.03299
-0.00707
-0.06874
0.03417
-0.05210
-0.04447
-0.05347
-0.03869
0.00899
-0.02293
0.09636
0.01068
-0.02121
0.09843
0.01511
0.01010
0.16194
0.01462
0.01079
0.16203
0.03883
0.08040
0.25694
0.03822
0.08130
0.25656
0.02688
0.12576
0.31657
0.02741
0.12480
0.31462
-0.02514
-0.12167
-0.01603
-0.02352
-0.11883
-0.01657
-0.00343
0.24375
0.18747
-0.00216
0.24496
0.18790
-0.00253
0.26775
0.21935
-0.00260
0.27127
0.22030
0.22668
0.22789
-0.00830
-0.07709
0.03808
-0.00952
-0.07904
0.03434
-0.04849
-0.06955
-0.05430
-0.07197
0.01177
-0.03763
0.08647
0.01053
-0.03702
0.08634
0.01103
-0.01215
0.15490
0.01100
-0.01206
0.15432
0.04208
0.03848
0.20239
0.04314
0.03959
0.20166
-0.02935
-0.13937
-0.03516
-0.02999
-0.13916
-0.03446
0.03223
0.06483
0.26004
0.03264
0.06346
0.25843
-0.00170
0.21462
0.17290
-0.00446
0.21279
0.17316
-0.00360
0.22212
0.18470
0.22477
0.18208
-0.00723
-0.10226
-0.00663
-0.00614
-0.10277
-0.00677
0.00752
-0.06393
0.04531
0.00618
-0.06540
0.04537
-0.06360
-0.06810
0.02112
-0.03875
0.09168
0.01992
-0.03806
0.09179
0.01954
-0.01561
0.14227
0.02044
-0.01516
0.14297
-0.02515
-0.08060
-0.02639
-0.07714
0.00147
0.10093
0.13898
0.00090
0.10237
0.13743
-0.00323
0.15528
0.14415
-0.00248
0.15276
0.14259
0.15417
0.15632
-0.01051
-0.12762
-0.04177
-0.01011
-0.12868
-0.04068
-0.01305
-0.09586
0.00193
-0.01413
-0.09702
0.00006
0.01894
-0.06725
0.06526
0.01795
-0.06633
0.06411
0.01699
-0.04262
0.10425
0.01616
-0.04201
0.10456
0.00077
0.11336
0.09725
0.00273
0.11766
0.09806
-0.00106
0.11395
0.11353
0.11388
0.11174
-0.03419
-0.11164
-0.03579
-0.10943
-0.03223
-0.15633
-0.08711
-0.03496
-0.15626
-0.08354
-0.02286
-0.12772
-0.04394
-0.02483
-0.12787
-0.04214
0.00628
-0.00874
-0.09986
0.00784
-0.00780
-0.10121
0.00498
0.00596
0.05903
0.00427
0.00729
0.05580
0.00435
0.07371
0.06645
0.00310
0.07404
0.06503
0.07077
0.06981
-0.06205
-0.06235
-0.05221
-0.05931
-0.01774
0.00571
-0.02383
-0.13236
-0.01932
0.00526
-0.01994
-0.13257
-0.10290
-0.10090
0.00801
-0.00270
0.00474
0.00973
-0.00160
0.00442
0.00757
0.00940
0.00940
0.00900
0.00949
-0.02853
0.01613
-0.05938
-0.02655
0.01406
-0.06194
0.01221
-0.07350
-0.05140
0.01195
-0.07528
-0.04843
-0.06005
-0.06039
0.00882
0.00801
0.01172
0.00983
0.00850
0.02633
0.02666
0.00868
0.02690
0.02665
0.02216
0.02254
0.02137
0.02138
0.01138
0.01154
0.06625
0.06611
0.01455
0.07133
0.05650
0.01432
0.07111
0.05670
0.00528
0.00050
0.00496
0.00497
0.00157
0.00571
0.07787
0.05593
0.07836
0.05655
0.00954
0.01034
0.09879
0.08596
0.01037
0.09853
0.08602
0.01120
0.10864
0.07614
0.01116
0.10775
0.07572
0.01328
-0.03114
-0.02961
0.06855
0.01436
-0.02963
-0.02901
0.06755
0.10729
0.11009
0.10584
0.10951
-0.04028
-0.06474
0.00734
-0.04128
-0.06339
0.00975
-0.09427
-0.02879
-0.09368
-0.02650
0.00623
0.00541
0.11076
0.11155
0.00613
0.12621
0.10335
0.00621
0.12516
0.10466
0.02217
0.13209
0.08998
0.02354
0.13134
0.09048
-0.00623
0.09937
0.17359
-0.00518
0.09846
0.17225
-0.02036
0.00918
0.11630
-0.01917
0.00961
0.11707
-0.02081
-0.02446
0.05529
-0.02091
-0.02409
0.05571
-0.05746
0.01479
-0.05750
0.01489
0.00239
0.00180
0.13300
0.12684
0.00184
0.13244
0.12793
0.00640
0.14436
0.10981
0.00636
0.14380
0.10953
0.02082
0.14709
0.22628
0.02095
0.14640
0.22659
0.00189
0.03962
0.23205
0.00278
0.03919
0.23262
0.00157
0.04635
0.15818
0.00219
0.04637
0.15931
-0.01857
0.01869
0.10246
-0.01772
0.01878
0.10309
-0.00080
-0.00045
0.16390
0.16520
0.00040
0.19082
0.14509
0.00006
0.18972
0.14545
0.03333
0.20084
0.12330
0.03352
0.19929
0.12436
-0.04925
-0.01984
0.04941
-0.04899
-0.01925
0.04852
0.03461
0.21046
0.33399
0.03506
0.20881
0.33441
0.02007
0.11316
0.26260
0.02001
0.11265
0.26303
-0.06607
0.00501
-0.06554
0.00440
0.00364
0.05693
0.19082
0.00455
0.05627
0.19155
-0.01599
0.03138
0.12075
-0.01567
0.03149
0.12035
-0.00261
-0.00212
0.19257
0.17408
-0.00255
0.19113
0.17392
0.00051
0.21682
0.15404
0.00034
0.21543
0.15439
0.03214
0.22485
0.36279
0.03158
0.22395
0.36406
-0.03810
-0.00096
0.06517
-0.03934
0.00001
0.06739
0.02848
0.17777
0.39412
0.02855
0.17615
0.39548
0.02194
0.14999
0.29100
0.02229
0.14865
0.29201
0.00607
0.08449
0.19827
0.00620
0.08307
0.19934
-0.04718
0.01596
-0.04557
0.01832
-0.01342
0.05603
0.12116
-0.01290
0.05634
0.12343
-0.00222
-0.00246
0.21054
0.21099
-0.00380
0.22955
0.19064
-0.00333
0.22866
0.19150
0.04963
0.24466
0.16643
0.04938
0.24281
0.16754
-0.03842
0.01932
0.05824
-0.03711
0.01925
0.05798
0.04764
0.55351
0.28367
0.04692
0.55490
0.28344
0.03330
0.23509
0.41669
0.03377
0.23416
0.41646
0.02387
0.19477
0.28965
0.02432
0.19354
0.28992
0.00657
0.10582
0.18610
0.00656
0.10480
0.18622
-0.08134
-0.03547
0.01764
-0.08022
-0.03422
0.01848
-0.00818
0.07393
0.10065
-0.00865
0.07328
0.10084
-0.08580
0.00202
-0.08419
0.00201
-0.00124
-0.00304
0.24871
0.23590
-0.00293
0.24848
0.23668
-0.00288
0.26655
0.21629
-0.00298
0.26597
0.21637
0.04445
0.05762
0.31045
0.60591
0.04384
0.05725
0.30951
0.60426
0.51490
0.28094
0.51438
0.27956
0.03797
0.27656
0.42331
0.03792
0.27568
0.42413
0.02354
0.22688
0.27949
0.02319
0.22632
0.28088
-0.03420
0.03235
0.04425
-0.03284
0.03288
0.04509
0.00816
0.12397
0.15921
0.00799
0.12352
0.16074
-0.07215
-0.02447
0.01397
-0.07170
-0.02390
0.01342
-0.00478
0.08597
0.07451
-0.00498
0.08628
0.07573
-0.08232
-0.00024
-0.08197
-0.00171
-0.00166
-0.00145
0.26194
0.26207
-0.00167
0.28553
0.24306
-0.00191
0.28437
0.24343
0.08497
0.05850
0.83588
0.33185
0.08441
0.05858
0.83901
0.33017
0.06096
0.36663
0.61669
0.06100
0.36551
0.61716
0.30223
0.30170
0.30061
0.30182
0.04011
0.33223
0.40765
0.03973
0.33038
0.40763
0.02157
0.26217
0.24695
0.02141
0.26207
0.24722
-0.02786
0.03854
0.02353
-0.02711
0.03842
0.02372
0.00730
0.12056
0.12135
0.00787
0.12042
0.12163
-0.07043
-0.02307
0.00581
-0.07088
-0.02305
0.00579
0.00176
0.08059
0.03920
0.00106
0.08090
0.03908
-0.00063
-0.00042
0.30421
0.28613
-0.00069
0.30416
0.28731
-0.08174
-0.00606
-0.08147
-0.00609
0.09104
0.06647
0.34918
0.77713
0.09091
0.06564
0.34644
0.77624
0.00008
0.36263
0.32013
0.00031
0.36308
0.31897
0.06032
0.39323
0.60726
0.05962
0.39169
0.60680
0.33543
0.61834
0.33422
0.62152
0.03594
0.38298
0.34376
0.03560
0.38436
0.34128
0.01434
0.25817
0.21180
0.01485
0.25655
0.21278
-0.01996
0.02895
0.00100
-0.02020
0.02950
0.00152
0.00903
0.11305
0.08652
0.00890
0.11163
0.08720
-0.04495
-0.03503
-0.03042
-0.04509
-0.03507
-0.02958
0.01137
0.06787
0.01056
0.01062
0.06805
0.01171
0.00003
-0.00042
0.31280
0.31411
0.00030
0.09179
0.33229
0.44379
0.00011
0.09259
0.33220
0.44096
0.32667
0.45244
0.32658
0.45243
0.12343
0.37815
0.53557
0.12261
0.37828
0.53497
0.09038
0.38175
0.70432
0.09004
0.38045
0.70767
0.05175
0.02571
0.32872
0.35160
0.05141
0.02601
0.32811
0.35132
0.40996
0.59233
0.40778
0.59382
0.00968
0.23034
0.17763
0.00985
0.22980
0.17760
-0.07973
-0.01442
-0.07962
-0.01348
0.01089
0.01326
-0.04597
0.01147
0.01349
-0.04539
0.01460
0.08456
0.06080
0.01400
0.08438
0.06107
0.01719
0.03937
-0.01034
0.01607
0.03965
-0.00993
-0.01966
-0.03750
-0.08577
-0.01949
-0.03782
-0.08478
0.00020
-0.00006
0.50688
0.32437
-0.00014
0.32456
0.50540
0.00092
0.51150
0.32615
0.00113
0.32659
0.50925
0.09141
0.53736
0.32388
0.09048
0.32368
0.53680
0.12827
0.53308
0.40253
0.12845
0.40176
0.53329
0.08145
0.73804
0.42085
0.08153
0.42078
0.73782
0.03971
0.55477
0.39138
0.03964
0.39050
0.55609
0.01251
0.32415
0.27713
0.01232
0.27634
0.32531
0.01169
0.15756
0.17492
0.01166
0.17406
0.15814
-0.05430
-0.01320
-0.05507
-0.01320
-0.00268
0.00530
-0.06413
0.00605
-0.00237
-0.06413
0.01979
0.04912
0.06388
0.04905
0.01946
0.06388
-0.00237
-0.05507
-0.08478
0.01946
0.00605
-0.00993
0.00592
0.04905
0.15814
0.02492
0.17406
0.32531
0.06804
0.27634
0.55609
0.12021
0.39050
0.73782
0.08566
0.42078
0.53329
0.00083
0.40176
0.53680
0.00019
0.32368
0.50925
0.00013
0.32659
0.50540
0.00013
0.32456
0.32437
0.00019
0.32615
0.50688
0.00083
0.32388
0.51150
0.08566
0.40253
0.53736
0.12021
0.42085
0.53308
0.06804
0.39138
0.73804
0.02492
0.27713
0.55477
0.00592
0.17492
0.32415
0.04912
0.15756
0.01979
0.00530
-0.01034
-0.00268
-0.05430
-0.08577
0.01166
0.03965
0.06107
0.01169
0.03937
0.06080
-0.03782
0.01607
-0.04539
-0.03750
0.01719
-0.04597
-0.01949
-0.01348
-0.01966
-0.01442
0.01232
0.08438
0.17760
0.01251
0.08456
0.17763
0.03964
0.22980
0.35132
0.03971
0.23034
0.35160
0.08153
0.59382
0.32811
0.08145
0.59233
0.32872
0.12845
0.40778
0.70767
0.12827
0.40996
0.70432
0.09048
0.38045
0.53497
0.09141
0.38175
0.53557
0.00113
0.37828
0.44096
0.00092
0.37815
0.44379
-0.00014
0.45243
0.33220
-0.00006
0.45244
0.33229
0.00020
0.32658
0.31411
0.32667
0.31280
0.01349
-0.07962
-0.02958
0.01326
-0.07973
-0.03042
0.01400
0.01147
0.01171
0.01460
0.01089
0.01056
0.00985
0.06805
0.08720
0.00968
0.06787
0.08652
0.01062
-0.03507
0.00152
0.01137
-0.03503
0.00100
-0.04509
-0.00609
-0.04495
-0.00606
0.02601
0.11163
0.21278
0.02571
0.11305
0.21180
0.05141
0.09004
0.34128
0.60680
0.05175
0.09038
0.34376
0.60726
0.25655
0.38436
0.25817
0.38298
0.12261
0.39169
0.77624
0.12343
0.39323
0.77713
0.09259
0.62152
0.34644
0.09179
0.61834
0.34918
0.00011
-0.00042
0.31897
0.28731
0.00030
0.00003
0.32013
0.28613
0.33422
0.36308
0.33543
0.36263
0.30416
0.30421
0.00890
0.02950
0.03908
0.00903
0.02895
0.03920
-0.02020
-0.08147
0.00579
-0.01996
-0.08174
0.00581
0.01485
0.08090
0.12163
0.01434
0.08059
0.12135
0.00106
-0.02305
0.02372
0.00176
-0.02307
0.02353
0.03560
0.12042
0.24722
0.03594
0.12056
0.24695
0.05962
0.26207
0.40763
0.06032
0.26217
0.40765
0.00031
0.06564
0.30182
0.33017
0.00008
0.06647
0.30170
0.33185
0.09091
0.33038
0.61716
0.09104
0.33223
0.61669
-0.00069
0.30061
0.24343
-0.00042
0.30223
0.24306
0.36551
0.83901
0.36663
0.83588
-0.07088
-0.00171
-0.07043
-0.00024
-0.00063
0.28437
0.26207
0.28553
0.26194
0.00787
0.03842
0.07573
0.00730
0.03854
0.07451
-0.02711
-0.08197
0.01342
-0.02786
-0.08232
0.01397
0.02141
0.08628
0.16074
0.02157
0.08597
0.15921
-0.00498
-0.02390
0.04509
-0.00478
-0.02447
0.04425
0.03973
0.12352
0.28088
0.04011
0.12397
0.27949
0.06100
0.22632
0.42413
0.06096
0.22688
0.42331
0.05858
-0.00191
0.27956
0.21637
0.05850
-0.00167
0.28094
0.21629
0.08441
0.27568
0.60426
0.08497
0.27656
0.60591
0.51438
0.30951
0.51490
0.31045
-0.00145
0.26597
0.23668
-0.00166
0.26655
0.23590
0.24848
0.24871
-0.07170
0.00201
-0.07215
0.00202
0.00799
0.03288
0.10084
0.00816
0.03235
0.10065
-0.03284
-0.08419
0.01848
-0.03420
-0.08580
0.01764
0.02319
0.07328
0.18622
0.02354
0.07393
0.18610
-0.00865
-0.03422
0.05798
-0.00818
-0.03547
0.05824
0.03792
0.10480
0.28992
0.03797
0.10582
0.28965
0.05725
0.19354
0.41646
0.05762
0.19477
0.41669
0.04384
-0.00298
0.28344
0.16754
0.04445
-0.00288
0.28367
0.16643
0.23416
0.55490
0.23509
0.55351
-0.00293
0.24281
0.19150
-0.00304
0.24466
0.19064
-0.00124
0.22866
0.21099
0.22955
0.21054
-0.08022
-0.08134
0.00656
0.01925
0.12343
0.00657
0.01932
0.12116
-0.03711
0.01832
-0.03842
0.01596
0.02432
0.05634
0.19934
0.02387
0.05603
0.19827
0.03377
0.08307
0.29201
0.03330
0.08449
0.29100
0.04692
0.14865
0.39548
0.04764
0.14999
0.39412
0.04938
0.17615
0.36406
0.04963
0.17777
0.36279
-0.01290
-0.04557
0.06739
-0.01342
-0.04718
0.06517
-0.00333
0.22395
0.15439
-0.00380
0.22485
0.15404
-0.00246
0.21543
0.17392
-0.00222
0.21682
0.17408
0.19113
0.19257
0.00620
0.00001
0.12035
0.00607
-0.00096
0.12075
-0.03934
0.00440
-0.03810
0.00501
0.02229
0.03149
0.19155
0.02194