# vtk DataFile Version 3.0
Point representing Sub_cellular elem model
ASCII

DATASET UNSTRUCTURED_GRID
POINTS 3657 float
-54.93863 -3.06167 53.29328 
-54.92476 3.19955 53.30626 
-54.59887 -9.27590 52.87977 
-54.58798 9.43727 52.91106 
-51.80368 0.04431 56.79030 
-51.56236 -6.13186 56.52256 
-51.56768 6.23035 56.51235 
-51.76667 -17.18348 53.61041 
-51.68502 17.27765 53.62618 
-51.22749 -12.21761 55.98073 
-51.15529 12.34137 56.03031 
-48.12298 -3.07529 59.73197 
-48.13221 3.14527 59.72720 
-47.84080 -9.25194 59.38432 
-47.82493 9.29677 59.39356 
-48.06418 -20.24222 56.40240 
-48.00620 20.33428 56.39843 
-47.54636 -15.18391 58.41387 
-47.49243 15.24634 58.44517 
-48.40120 -25.05641 53.66301 
-48.35689 25.23087 53.75544 
-48.37060 -29.92985 50.86322 
-48.28128 30.10388 50.91778 
-44.55194 0.01074 62.53361 
-44.45904 -6.20389 62.44398 
-44.44923 6.23309 62.45083 
-44.09186 -12.17907 61.74237 
-44.07103 12.22391 61.77762 
-43.81709 -18.13182 60.75636 
-43.78272 18.17065 60.78107 
-44.19059 -23.20775 58.53414 
-44.14835 23.28461 58.57014 
-44.55539 -28.22000 56.16735 
-44.48645 28.33911 56.20545 
-43.71229 -33.76721 53.62536 
-43.57740 33.89404 53.61535 
-40.84393 -3.09009 64.94384 
-40.82778 3.12745 64.95408 
-40.58139 -9.10791 64.60217 
-40.56305 9.11762 64.59269 
-40.17018 -14.99654 63.87834 
-40.15507 15.02731 63.88886 
-39.84151 -20.84556 62.61589 
-39.82056 20.90465 62.62710 
-40.24350 -25.95857 60.54297 
-40.18264 26.03497 60.57419 
-39.57783 -31.55605 58.35966 
-39.50917 31.62736 58.40304 
-37.21933 0.01383 67.31108 
-37.03385 -5.97879 67.04462 
-36.99740 5.99742 67.06119 
-36.61867 -11.94957 66.70870 
-36.61565 11.97583 66.71133 
-38.63810 -37.03322 55.79555 
-38.55813 37.13262 55.89942 
-36.21448 -17.78666 65.69492 
-36.22093 17.80447 65.70058 
-35.88895 -23.53114 64.37115 
-35.85796 23.55569 64.39785 
-37.63988 -41.99418 52.36096 
-37.55962 42.16073 52.47653 
-35.28302 -29.11788 62.41828 
-35.21432 29.15536 62.47047 
-34.51417 -34.70287 60.22693 
-34.43955 34.73714 60.28414 
-32.63078 -3.15898 69.51616 
-32.61129 3.15238 69.52598 
-32.27451 -9.15333 69.18534 
-32.27843 9.18063 69.21111 
-31.72330 -15.05711 68.57679 
-31.71274 15.06300 68.58793 
-33.41907 -39.99524 57.28682 
-33.34948 40.05392 57.33023 
-31.35558 -20.88307 67.43901 
-31.34569 20.86752 67.45604 
-31.68428 -26.03401 65.60180 
-31.64256 26.03068 65.64188 
-30.96167 -31.62626 63.59018 
-30.90865 31.64965 63.62522 
-32.30652 -45.06198 54.06589 
-32.12993 45.16442 54.16104 
-30.05836 -37.11970 61.11728 
-29.97564 37.15819 61.13623 
-27.97253 0.00083 71.59828 
-27.90817 -6.31584 71.53080 
-27.89566 6.31986 71.53699 
-27.27965 -12.34206 70.95819 
-27.24548 12.32918 70.95146 
-28.89024 -42.39602 58.18059 
-28.81228 42.43172 58.22495 
-26.88781 -18.19508 70.15469 
-26.86753 18.17871 70.17472 
-27.14036 -23.35360 68.53712 
-27.11738 23.35526 68.55924 
-27.43941 -28.50333 66.71778 
-27.40913 28.52484 66.73797 
-26.54743 -34.02034 64.44235 
-26.51884 34.05012 64.48396 
-27.49842 -47.51690 54.64019 
-27.37105 47.56899 54.64229 
-25.55917 -39.49776 61.91062 
-25.49248 39.53464 61.93773 
-26.15344 -51.88493 50.38368 
-25.99255 52.00336 50.42850 
-23.18850 -3.16934 73.32672 
-23.16083 3.17230 73.30823 
-22.94019 -9.41601 72.91688 
-22.93507 9.43647 72.91795 
-22.61014 -20.55993 71.01089 
-22.61031 20.56711 71.03724 
-22.37326 -15.33208 72.22396 
-22.33816 15.35328 72.23939 
-22.86245 -25.75504 69.37986 
-22.82275 25.76480 69.38095 
-23.03471 -30.80274 67.33286 
-23.00793 30.83350 67.34348 
-24.14003 -44.78572 58.64549 
-24.05964 44.83900 58.65894 
-22.08227 -36.28877 64.98113 
-22.02129 36.32241 64.99919 
-22.69406 -49.88870 54.89178 
-22.58310 49.94313 54.92147 
-20.73695 -41.72888 62.13136 
-20.66537 41.74500 62.16634 
-21.01714 -54.26593 50.61134 
-20.84401 54.33806 50.66160 
-18.39851 -0.00206 74.92259 
-18.26217 -6.26402 74.59724 
-18.27374 6.26078 74.59353 
-18.16236 -17.73741 73.01585 
-18.12515 17.74170 73.03032 
-18.36634 -22.95364 71.74636 
-18.35242 22.95816 71.75689 
-18.01781 -12.47504 74.08028 
-17.99240 12.46748 74.08959 
-18.47967 -28.03410 69.89030 
-18.47285 28.04158 69.90116 
-18.62770 -33.05305 67.80577 
-18.59905 33.07968 67.81496 
-19.24373 -46.96945 58.76050 
-19.18611 46.98744 58.78440 
-17.31733 -38.50056 65.18582 
-17.23975 38.51413 65.21310 
-17.67000 -51.84426 54.85325 
-17.56256 51.89172 54.87256 
-15.87653 -43.88652 62.28537 
-15.81255 43.91033 62.29979 
-13.71938 -3.18123 75.80442 
-13.70135 3.17708 75.83196 
-15.85384 -56.22381 50.53286 
-15.67618 56.30577 50.60051 
-13.74013 -20.02239 73.54547 
-13.73512 20.03049 73.54929 
-13.54049 -9.46170 75.38664 
-13.54193 9.43603 75.38592 
-13.81338 -25.20909 71.99977 
-13.78969 25.19546 72.01421 
-13.52255 -14.77300 74.66672 
-13.50068 14.75632 74.67599 
-13.85134 -30.28624 70.07984 
-13.84006 30.26971 70.09969 
-14.10242 -35.09298 67.77683 
-14.05483 35.08412 67.80377 
-14.26905 -48.90159 58.69728 
-14.21900 48.92605 58.70759 
-12.64664 -40.48925 65.07082 
-12.61290 40.50006 65.05541 
-12.65539 -53.72153 54.73886 
-12.52256 53.76089 54.75092 
-11.09579 -45.72395 61.85140 
-11.00822 45.75596 61.88725 
-9.10530 0.00175 76.64119 
-9.05283 -11.72392 75.86976 
-9.04806 11.72695 75.85436 
-9.04709 -6.36585 76.52622 
-9.02134 6.36649 76.53052 
-9.13351 -16.96079 75.07969 
-9.12325 16.96433 75.08333 
-9.22601 -22.17575 73.68980 
-9.18650 22.18487 73.69753 
-9.31952 -32.21302 69.96382 
-9.28468 32.24397 69.98305 
-9.19509 -27.36365 72.09711 
-9.17453 27.36693 72.10346 
-9.48773 -37.04921 67.67072 
-9.46221 37.08901 67.66158 
-9.81882 -57.27061 51.30454 
-9.62838 57.27624 51.27997 
-9.41953 -50.69591 58.21730 
-9.35915 50.69933 58.23965 
-7.91629 -42.32113 64.64769 
-7.85865 42.34631 64.64807 
-6.26407 -47.49462 61.43340 
-6.16045 47.52680 61.42728 
-6.43120 -54.25021 55.30986 
-6.32088 54.25113 55.32962 
-4.49960 -3.18914 77.08584 
-4.47722 3.20680 77.09019 
-4.52597 -8.57896 76.69087 
-4.51068 8.57919 76.69166 
-4.54123 -13.93275 75.99460 
-4.53368 13.92442 76.01434 
-4.61454 -19.06956 74.99043 
-4.60703 19.08348 74.98847 
-4.60134 -24.22584 73.54077 
-4.56056 24.24739 73.53824 
-4.60354 -29.15406 71.75730 
-4.59494 29.13636 71.74808 
-4.68443 -34.00780 69.58350 
-4.66740 34.02040 69.58279 
-4.79463 -38.76985 67.09735 
-4.75908 38.79265 67.09127 
-3.38413 -57.64536 51.89598 
-3.22455 57.65644 51.88469 
-3.21652 -51.04721 58.68238 
-3.12650 51.05635 58.64900 
-3.09988 -43.97221 64.02692 
-3.02611 43.98628 64.02432 
-0.05460 -54.49235 55.71317 
-0.04349 -47.60997 61.51956 
-0.02391 -40.37702 66.43965 
-0.00632 -35.63160 68.95318 
0.00701 -30.84179 71.28745 
-0.02583 -25.90734 73.11064 
-0.00100 -21.01218 74.72526 
0.00353 -15.93236 75.81357 
0.00011 -10.74666 76.70027 
-0.01991 -5.36395 77.13105 
-0.00000 0.00000 77.39795 
0.01991 5.36395 77.13105 
-0.00011 10.74666 76.70027 
-0.00353 15.93236 75.81357 
0.00100 21.01218 74.72526 
0.02583 25.90734 73.11064 
-0.00701 30.84179 71.28745 
0.00632 35.63160 68.95318 
0.02391 40.37702 66.43965 
0.04349 47.60997 61.51956 
0.05460 54.49235 55.71317 
3.02611 -43.98628 64.02432 
3.09988 43.97221 64.02692 
3.12650 -51.05635 58.64900 
3.21652 51.04721 58.68238 
3.22455 -57.65644 51.88469 
3.38413 57.64536 51.89598 
4.75908 -38.79265 67.09127 
4.79463 38.76985 67.09735 
4.66740 -34.02040 69.58279 
4.68443 34.00780 69.58350 
4.59494 -29.13636 71.74808 
4.60354 29.15406 71.75730 
4.56056 -24.24739 73.53824 
4.60134 24.22584 73.54077 
4.60703 -19.08348 74.98847 
4.61454 19.06956 74.99043 
4.53368 -13.92442 76.01434 
4.54123 13.93275 75.99460 
4.51068 -8.57919 76.69166 
4.52597 8.57896 76.69087 
4.47722 -3.20680 77.09019 
4.49960 3.18914 77.08584 
6.32088 -54.25113 55.32962 
6.43120 54.25021 55.30986 
6.16045 -47.52680 61.42728 
6.26407 47.49462 61.43340 
7.85865 -42.34631 64.64807 
7.91629 42.32113 64.64769 
9.35915 -50.69933 58.23965 
9.41953 50.69591 58.21730 
9.62838 -57.27624 51.27997 
9.81882 57.27061 51.30454 
9.46221 -37.08901 67.66158 
9.48773 37.04921 67.67072 
9.17453 -27.36693 72.10346 
9.19509 27.36365 72.09711 
9.28468 -32.24397 69.98305 
9.31952 32.21302 69.96382 
9.18650 -22.18487 73.69753 
9.22601 22.17575 73.68980 
9.12325 -16.96433 75.08333 
9.13351 16.96079 75.07969 
9.02134 -6.36649 76.53052 
9.04709 6.36585 76.52622 
9.04806 -11.72695 75.85436 
9.05283 11.72392 75.86976 
9.10530 -0.00175 76.64119 
11.00822 -45.75596 61.88725 
11.09579 45.72395 61.85140 
12.52256 -53.76089 54.75092 
12.65539 53.72153 54.73886 
12.61290 -40.50006 65.05541 
12.64664 40.48925 65.07082 
14.21900 -48.92605 58.70759 
14.26905 48.90159 58.69728 
14.05483 -35.08412 67.80377 
14.10242 35.09298 67.77683 
13.84006 -30.26971 70.09969 
13.85134 30.28624 70.07984 
13.50068 -14.75632 74.67599 
13.52255 14.77300 74.66672 
13.78969 -25.19546 72.01421 
13.81338 25.20909 71.99977 
13.54193 -9.43603 75.38592 
13.54049 9.46170 75.38664 
13.73512 -20.03049 73.54929 
13.74013 20.02239 73.54547 
15.67618 -56.30577 50.60051 
15.85384 56.22381 50.53286 
13.70135 -3.17708 75.83196 
13.71938 3.18123 75.80442 
15.81255 -43.91033 62.29979 
15.87653 43.88652 62.28537 
17.56256 -51.89172 54.87256 
17.67000 51.84426 54.85325 
17.23975 -38.51413 65.21310 
17.31733 38.50056 65.18582 
19.18611 -46.98744 58.78440 
19.24373 46.96945 58.76050 
18.59905 -33.07968 67.81496 
18.62770 33.05305 67.80577 
18.47285 -28.04158 69.90116 
18.47967 28.03410 69.89030 
17.99240 -12.46748 74.08959 
18.01781 12.47504 74.08028 
18.35242 -22.95816 71.75689 
18.36634 22.95364 71.74636 
18.12515 -17.74170 73.03032 
18.16236 17.73741 73.01585 
18.27374 -6.26078 74.59353 
18.26217 6.26402 74.59724 
18.39851 0.00206 74.92259 
20.84401 -54.33806 50.66160 
21.01714 54.26593 50.61134 
20.66537 -41.74500 62.16634 
20.73695 41.72888 62.13136 
22.58310 -49.94313 54.92147 
22.69406 49.88870 54.89178 
22.02129 -36.32241 64.99919 
22.08227 36.28877 64.98113 
24.05964 -44.83900 58.65894 
24.14003 44.78572 58.64549 
23.00793 -30.83350 67.34348 
23.03471 30.80274 67.33286 
22.82275 -25.76480 69.38095 
[...]
CELL_DATA 40900
SCALARS Strain double 1
LOOKUP_TABLE default
-0.00813
-0.00642
-0.02277
-0.02093
-0.00290
-0.02075
-0.02909
-0.02573
-0.04786
-0.02572
-0.04287
-0.01213
-0.01052
0.01643
0.01305
-0.02336
0.01459
0.00596
-0.01939
0.01754
0.00497
-0.02459
-0.07962
-0.04631
-0.02686
-0.08407
-0.04585
0.01253
-0.05232
0.00971
-0.06214
-0.01542
-0.01270
0.04610
0.04825
-0.01663
0.05293
0.04739
-0.02055
0.05772
0.03505
-0.01798
0.05842
0.03800
-0.03896
-0.04467
-0.05118
-0.07482
-0.03192
-0.04017
-0.04800
-0.07547
0.02523
-0.03710
0.02371
-0.04252
-0.03764
-0.04429
-0.06479
-0.03438
-0.04635
-0.07123
-0.06405
-0.07870
-0.06547
-0.08169
-0.01428
-0.01305
0.07834
0.08329
-0.01708
0.08752
0.07861
-0.01497
0.08774
0.07637
-0.00901
0.09504
0.05200
-0.00959
0.09405
0.04767
-0.02162
-0.02391
-0.01323
-0.01638
-0.02656
-0.01409
-0.03563
-0.01829
-0.04113
-0.02945
-0.02190
-0.03892
-0.02738
-0.02825
-0.04616
-0.02165
-0.02751
-0.04964
-0.05647
-0.07587
-0.05421
-0.07841
-0.01584
-0.01175
0.10280
0.10011
-0.01606
0.10076
0.10160
-0.01549
0.11022
0.10319
-0.01247
0.11415
0.10367
0.00783
0.07253
0.06086
0.01251
0.07069
0.05569
-0.02054
-0.01102
0.01511
-0.01951
-0.01068
0.01413
-0.01642
-0.00576
-0.00737
-0.01776
-0.00625
-0.00851
-0.02992
-0.02106
-0.02994
-0.02962
-0.01821
-0.03143
-0.01569
-0.01709
0.12875
0.12885
-0.01585
0.14571
0.12840
-0.01483
0.14504
0.12404
-0.00416
0.14892
0.16622
-0.00575
0.14978
0.16590
-0.03886
-0.05064
-0.06893
-0.03129
-0.05230
-0.07534
0.00083
0.03238
0.08687
0.00151
0.03597
0.08677
-0.00820
0.02646
0.03840
-0.00690
0.02595
0.03809
-0.05398
-0.06717
-0.05761
-0.06058
-0.00840
0.00330
0.00889
-0.00906
0.00304
0.00417
-0.00817
-0.01300
-0.03603
-0.00386
-0.01647
-0.03556
-0.01609
-0.01579
0.15810
0.14820
-0.01062
0.15369
0.14799
-0.00059
0.16517
0.14555
-0.00367
0.16847
0.14575
0.02766
0.13908
0.19207
0.02383
0.14304
0.19179
-0.03424
-0.03189
-0.06242
-0.02953
-0.03163
-0.06298
-0.00223
0.06937
0.11574
-0.00186
0.07112
0.12033
-0.00090
0.05348
0.05813
0.00377
0.04911
0.05776
-0.00740
0.01865
0.00381
-0.00339
0.01480
0.00046
-0.05490
-0.06634
-0.06447
-0.07932
-0.00742
-0.00295
-0.02945
-0.00991
-0.00556
-0.03199
-0.01260
-0.01222
0.15998
0.16337
-0.01124
0.17273
0.16096
-0.01339
0.17376
0.16120
-0.00248
0.17308
0.27957
-0.00382
0.16527
0.28457
-0.02397
-0.02782
-0.05508
-0.01669
-0.03088
-0.05376
0.00945
0.22607
0.13800
0.01252
0.22478
0.13629
0.00187
0.10569
0.12508
0.00534
0.10216
0.12842
0.00279
0.07012
0.06219
0.00267
0.07087
0.06219
-0.00115
0.02957
0.00120
0.00189
0.02630
0.00677
-0.04209
-0.06058
-0.06856
-0.03825
-0.06368
-0.07070
-0.00066
0.00263
-0.03627
0.00304
0.00145
-0.03698
-0.07212
-0.03146
-0.07493
-0.03282
-0.01143
-0.01304
0.18920
0.18434
-0.01062
0.18651
0.17788
0.01959
0.18744
0.16055
0.01994
0.18707
0.16136
0.02968
0.01687
0.17332
0.25685
0.02692
0.01843
0.17890
0.25902
0.40657
0.18412
0.40468
0.18524
0.00545
0.13583
0.14747
0.00846
0.13318
0.14076
0.00083
0.08505
0.05352
0.00169
0.08426
0.05345
-0.00210
-0.03545
-0.06396
-0.00234
-0.03080
-0.07005
0.00644
0.03367
-0.00985
0.00315
0.02980
-0.00852
-0.03284
-0.05471
-0.06134
-0.03053
-0.05733
-0.06233
0.00543
0.00168
-0.05013
0.00608
0.00185
-0.05091
-0.07939
-0.03421
-0.08699
-0.03290
-0.00984
-0.00971
0.19311
0.19708
-0.01481
0.20112
0.17993
-0.01541
0.20779
0.17917
0.03250
0.01318
0.46136
0.21393
0.03290
0.01512
0.45325
0.21330
0.01864
0.20984
0.28168
0.01917
0.20752
0.28192
0.20582
0.20530
0.20276
0.20357
0.00371
0.16014
0.14039
0.00699
0.16509
0.13904
0.00353
0.09716
0.04127
0.00214
0.09906
0.04185
-0.00275
-0.02829
-0.07258
0.00304
-0.02916
-0.07336
0.00698
0.02886
-0.02017
0.00884
0.02814
-0.02794
-0.02759
-0.06318
-0.07288
-0.02585
-0.06748
-0.06922
0.01326
0.00035
-0.06993
0.01315
-0.00422
-0.06575
-0.00760
-0.00813
0.21168
0.20903
-0.01129
0.20676
0.21032
-0.09110
-0.05180
-0.09823
-0.05346
0.02633
0.01018
0.23504
0.43969
0.02176
0.01508
0.23646
0.44881
-0.01182
0.25428
0.22037
-0.01040
0.25852
0.22222
0.01517
0.22840
0.28662
0.01432
0.22812
0.28768
0.22181
0.34901
0.21521
0.34852
0.00453
0.13085
0.17166
0.00496
0.14012
0.17024
0.00105
0.09762
0.03381
0.00627
0.09176
0.03378
0.00511
-0.03996
-0.09130
0.00999
-0.03435
-0.09107
0.00786
0.02407
-0.04841
0.00867
0.02015
-0.04353
-0.00608
-0.07201
-0.09621
-0.00081
-0.07454
-0.09978
0.01967
-0.01274
-0.09090
0.01621
-0.01844
-0.08762
-0.00365
-0.00407
0.22532
0.23115
-0.00364
0.03949
0.22411
0.28744
-0.00274
0.03902
0.22686
0.28706
0.22840
0.30512
0.22566
0.30261
0.04601
0.23109
0.34241
0.04677
0.23261
0.34295
0.02526
0.23803
0.44463
0.02427
0.23138
0.44649
0.01195
0.00432
0.15607
0.11610
0.01575
0.00816
0.15527
0.11126
0.23458
0.28826
0.23544
0.28367
0.00371
0.07354
0.01601
0.00231
0.07528
0.01666
-0.09079
-0.07889
-0.09266
-0.08303
-0.03708
0.00559
-0.11086
-0.03851
0.01058
-0.10715
0.00706
0.01286
-0.05651
0.01045
0.01014
-0.05431
-0.01272
-0.01672
-0.08921
-0.01432
-0.01743
-0.09171
0.00119
-0.05262
-0.12036
0.01016
-0.06063
-0.12069
-0.00167
0.00368
0.32638
0.22131
0.00051
0.21950
0.32851
-0.00604
0.33760
0.22758
-0.00804
0.23201
0.33385
0.02987
0.30156
0.22682
0.03499
0.22386
0.29914
0.02906
0.35345
0.17600
0.03054
0.17520
0.35060
0.02288
0.44684
0.25755
0.01615
0.25353
0.44761
0.00510
0.25444
0.21268
0.00965
0.21824
0.25039
0.00822
0.10159
0.12195
0.01031
0.11861
0.09976
0.00084
0.00194
0.04249
0.00108
0.04173
0.00265
-0.06540
-0.09530
-0.06773
-0.09530
-0.02600
-0.03748
-0.11571
-0.03373
-0.02820
-0.11571
-0.01592
-0.00347
-0.05239
-0.00427
-0.01650
-0.05239
-0.02820
-0.06773
-0.12069
-0.01650
-0.03373
-0.09171
0.00619
-0.00427
0.00265
0.01051
0.04173
0.09976
0.02008
0.11861
0.25039
0.02692
0.21824
0.44761
0.06331
0.25353
0.35060
0.05050
0.17520
0.29914
0.00506
0.22386
0.33385
-0.00040
0.23201
0.32851
-0.00040
0.21950
0.22131
0.00506
0.22758
0.32638
0.05050
0.22682
0.33760
0.06331
0.17600
0.30156
0.02692
0.25755
0.35345
0.02008
0.21268
0.44684
0.01051
0.12195
0.25444
0.00619
0.04249
0.10159
-0.00347
0.00194
-0.01592
-0.03748
-0.08921
-0.02600
-0.06540
-0.12036
0.00108
-0.01743
-0.05431
0.00084
-0.01672
-0.05651
-0.06063
-0.01432
-0.10715
-0.05262
-0.01272
-0.11086
0.01016
-0.08303
0.00119
-0.07889
0.01031
0.01014
0.01666
0.00822
0.01286
0.01601
0.00965
0.07528
0.11126
0.00510
0.07354
0.11610
0.01615
0.28367
0.15527
0.02288
0.28826
0.15607
0.03054
0.23544
0.44649
0.02906
0.23458
0.44463
0.03499
0.23138
0.34295
0.02987
0.23803
0.34241
-0.00804
0.23261
0.28706
-0.00604
0.23109
0.28744
0.00051
0.30261
0.22686
0.00368
0.30512
0.22411
-0.00167
0.22566
0.23115
0.22840
0.22532
0.01058
-0.09266
-0.09978
0.00559
-0.09079
-0.09621
0.01045
-0.03851
-0.08762
0.00706
-0.03708
-0.09090
0.00231
-0.01844
-0.04353
0.00371
-0.01274
-0.04841
0.01621
-0.07454
-0.09107
0.01967
-0.07201
-0.09130
-0.00081
-0.05346
-0.00608
-0.05180
0.00816
0.02015
0.03378
0.00432
0.02407
0.03381
0.01575
0.02427
0.17024
0.28768
0.01195
0.02526
0.17166
0.28662
0.09176
0.14012
0.09762
0.13085
0.04677
0.22812
0.44881
0.04601
0.22840
0.43969
0.03902
0.34852
0.23646
0.03949
0.34901
0.23504
-0.00274
-0.00407
0.22222
0.21032
-0.00364
-0.00365
0.22037
0.20903
0.21521
0.25852
0.22181
0.25428
0.20676
0.21168
0.00867
-0.03435
-0.06575
0.00786
-0.03996
-0.06993
0.00999
-0.09823
-0.06922
0.00511
-0.09110
-0.07288
0.00627
-0.00422
-0.02794
0.00105
0.00035
-0.02017
0.01315
-0.06748
-0.07336
0.01326
-0.06318
-0.07258
0.00496
0.02814
0.04185
0.00453
0.02886
0.04127
0.01432
0.09906
0.13904
0.01517
0.09716
0.14039
-0.01040
0.01508
0.20357
0.21330
-0.01182
0.01018
0.20530
0.21393
0.02176
0.16509
0.28192
0.02633
0.16014
0.28168
-0.01129
0.20276
0.17917
-0.00813
0.20582
0.17993
0.20752
0.45325
0.20984
0.46136
-0.02585
-0.03290
-0.02759
-0.03421
-0.00760
0.20779
0.19708
0.20112
0.19311
0.00884
-0.02916
-0.05091
0.00698
-0.02829
-0.05013
0.00304
-0.08699
-0.06233
-0.00275
-0.07939
-0.06134
0.00214
0.00185
-0.00852
0.00353
0.00168
-0.00985
0.00608
-0.05733
-0.07005
0.00543
-0.05471
-0.06396
0.00699
0.02980
0.05345
0.00371
0.03367
0.05352
0.01917
0.08426
0.14076
0.01864
0.08505
0.14747
0.01512
-0.01541
0.18524
0.16136
0.01318
-0.01481
0.18412
0.16055
0.03290
0.13318
0.25902
0.03250
0.13583
0.25685
0.40468
0.17890
0.40657
0.17332
-0.00971
0.18707
0.17788
-0.00984
0.18744
0.18434
0.18651
0.18920
-0.03053
-0.03282
-0.03284
-0.03146
0.00315
-0.03080
-0.03698
0.00644
-0.03545
-0.03627
-0.00234
-0.07493
-0.07070
-0.00210
-0.07212
-0.06856
0.00169
0.00145
0.00677
0.00083
0.00263
0.00120
0.00304
-0.06368
-0.05376
-0.00066
-0.06058
-0.05508
0.00846
0.02630
0.06219
0.00545
0.02957
0.06219
0.01843
0.07087
0.12842
0.01687
0.07012
0.12508
0.02692
0.01994
0.13629
0.28457
0.02968
0.01959
0.13800
0.27957
0.10216
0.22478
0.10569
0.22607
-0.01062
0.16527
0.16120
-0.01304
0.17308
0.16096
-0.01143
0.17376
0.16337
0.17273
0.15998
-0.03825
-0.04209
0.00189
-0.03088
-0.03199
-0.00115
-0.02782
-0.02945
-0.01669
-0.07932
-0.02397
-0.06634
0.00267
-0.00556
0.00046
0.00279
-0.00295
0.00381
0.00534
0.01480
0.05776
0.00187
0.01865
0.05813
0.01252
0.04911
0.12033
0.00945
0.05348
0.11574
-0.00382
0.07112
0.19179
-0.00248
0.06937
0.19207
-0.00991
-0.06447
-0.06298
-0.00742
-0.05490
-0.06242
-0.01339
0.14304
0.14575
-0.01124
0.13908
0.14555
-0.01222
0.16847
0.14799
-0.01260
0.16517
0.14820
0.15369
0.15810
-0.00339
-0.03163
-0.03556
-0.00740
-0.03189
-0.03603
-0.02953
-0.06058
-0.03424
-0.06717
0.00377
-0.01647
0.00417
-0.00090
-0.01300
0.00889
-0.00186
0.00304
0.03809
-0.00223
0.00330
0.03840
0.02383
0.02595
0.08677
0.02766
0.02646
0.08687
-0.00386
-0.05761
-0.07534
-0.00817
-0.05398
-0.06893
-0.00367
0.03597
0.16590
-0.00059
0.03238
0.16622
-0.01062
0.14978
0.12404
-0.01579
0.14892
0.12840
-0.01609
0.14504
0.12885
0.14571
0.12875
-0.00906
-0.05230
-0.03143
-0.00840
-0.05064
-0.02994
-0.00690
-0.01821
-0.00851
-0.00820
-0.02106
-0.00737
-0.03129
-0.03886
0.00151
-0.00625
0.01413
0.00083
-0.00576
0.01511
-0.00575
-0.01068
0.05569
-0.00416
-0.01102
0.06086
-0.02962
-0.07841
-0.02992
-0.07587
-0.01483
0.07069
0.10367
-0.01585
0.07253
0.10319
-0.01709
0.11415
0.10160
-0.01569
0.11022
0.10011
0.10076
0.10280
-0.01776
-0.05421
-0.04964
-0.01642
-0.05647
-0.04616
-0.01951
-0.02751
-0.03892
-0.02054
-0.02825
-0.04113
0.01251
-0.02190
-0.01409
0.00783
-0.01829
-0.01323
-0.01247
-0.02656
0.04767
-0.01549
-0.02391
0.05200
-0.01606
0.09405
0.07637
-0.01175
0.09504
0.07861
-0.01584
0.08774
0.08329
0.08752
0.07834
-0.02165
-0.08169
-0.02738
-0.07870
-0.02945
-0.06547
-0.07123
-0.03563
-0.06405
-0.06479
-0.01638
-0.04635
-0.07547
-0.02162
-0.04429
-0.07482
-0.00959
-0.04252
-0.04800
-0.00901
-0.03710
-0.05118
-0.01497
0.02371
0.03800
-0.01708
0.02523
0.03505
-0.01305
0.05842
0.04739
-0.01428
0.05772
0.04825
0.05293
0.04610
-0.03438
-0.03764
-0.04017
-0.04467
-0.03192
-0.01798
-0.06214
-0.04585
-0.03896
-0.02055
-0.05232
-0.04631
-0.08407
-0.07962
-0.01663
0.00971
0.00497
-0.01270
0.01253
0.00596
-0.01542
0.01754
0.01305
0.01459
0.01643
-0.02686
-0.01939
-0.04287
-0.02459
-0.02336
-0.04786
-0.01052
-0.02572
-0.02909
-0.01213
-0.02573
-0.02093
-0.02075
-0.02277
-0.00290
-0.00642
-0.00813
-0.00368
0.00045
0.02498
0.01945
-0.00005
0.02639
0.01921
0.03078
0.00692
0.03023
0.00452
-0.01003
-0.01041
0.05248
0.05071
-0.01584
0.05481
0.04615
-0.01811
0.05627
0.04583
-0.02150
-0.02606
0.03256
-0.02226
-0.02373
0.03338
0.05047
0.02017
0.05020
0.02130
-0.00919
-0.01237
0.07584
0.06992
-0.01213
0.07608
0.06914
-0.01252
0.07848
0.05843
-0.01267
0.07811
0.05671
-0.02489
-0.03542
-0.02093
0.00700
-0.02227
-0.03549
-0.02102
0.00674
0.09088
0.06132
0.08986
0.05945
-0.02527
-0.02099
-0.00402
-0.02662
-0.02090
-0.00312
-0.03930
-0.02404
-0.03945
-0.02153
-0.00901
-0.00963
0.08503
0.08389
-0.01007
0.09099
0.08061
-0.01032
0.09179
0.08072
-0.01005
0.10346
0.07518
-0.00836
0.10328
0.07443
-0.01079
0.07446
0.07884
-0.00943
0.07443
0.07816
-0.02503
0.00955
0.03940
-0.02504
0.00968
0.03899
-0.01876
0.00370
0.01809
-0.01852
0.00316
0.01927
-0.01437
-0.01918
-0.01516
-0.01946
-0.00828
-0.00988
0.09682
0.09573
-0.00922
0.09677
0.09623
-0.01203
0.10471
0.08867
-0.01153
0.10491
0.08845
-0.00792
0.11380
0.14842
-0.00748
0.11424
0.14828
-0.01588
0.02903
0.10659
-0.01447
0.02875
0.10648
-0.01668
0.03641
0.07156
-0.01550
0.03624
0.07130
-0.03121
0.02205
0.03765
-0.02969
0.02140
0.03590
-0.00873
-0.00835
0.11399
0.11438
-0.01088
0.13084
0.10606
-0.01030
0.13061
0.10540
0.00295
0.13911
0.09519
0.00294
0.13972
0.09395
-0.03634
-0.00866
-0.01072
-0.03894
-0.00895
-0.01248
0.01401
0.14214
0.19170
0.01454
0.14204
0.19162
-0.00164
0.06882
0.13200
-0.00117
0.06877
0.13174
-0.01457
-0.01567
-0.01595
-0.01842
-0.01332
0.04343
0.08162
-0.01146
0.04254
0.08107
-0.01692
0.02523
0.03340
-0.01638
0.02572
0.03205
-0.00791
-0.00951
0.12851
0.12066
-0.01007
0.12878
0.11981
-0.00949
0.14262
0.10945
-0.00934
0.14176
0.10947
-0.00448
0.15035
0.24103
-0.00401
0.15007
0.24188
-0.02899
0.01247
-0.00263
-0.03055
0.01276
-0.00228
-0.00063
0.11549
0.21300
0.00011
0.11512
0.21260
-0.00062
0.09690
0.14361
0.00018
0.09649
0.14343
-0.00666
0.05997
0.08334
-0.00590
0.05887
0.08355
-0.00836
-0.03427
-0.00810
-0.03037
-0.01915
0.04285
0.03111
-0.01727
0.04209
0.03181
-0.00805
-0.00763
0.14061
0.14049
-0.00987
0.14885
0.12685
-0.00926
0.14854
0.12811
0.02138
0.15406
0.11630
0.02116
0.15471
0.11711
-0.03375
0.01874
-0.00352
-0.03214
0.01842
-0.00443
0.01939
0.35221
0.18013
0.01929
0.35289
0.17997
0.00615
0.14557
0.23640
0.00740
0.14540
0.23598
0.00263
0.12243
0.14507
0.00409
0.12105
0.14493
-0.00638
0.07407
0.07309
-0.00566
0.07256
0.07155
-0.04858
-0.01690
-0.03088
-0.04735
-0.01582
-0.02958
-0.01102
0.05143
0.02144
-0.01054
0.05010
0.02085
-0.02991
-0.00884
-0.03033
-0.00826
-0.00688
-0.00798
0.16089
0.15256
-0.00757
0.16118
0.15401
-0.00563
0.16797
0.13984
-0.00541
0.16800
0.13961
0.00321
0.02032
0.20043
0.37488
0.00297
0.02109
0.19920
0.37411
0.33069
0.16899
0.33007
0.16817
0.00822
0.17269
0.24041
0.00951
0.17273
0.24188
0.00304
0.14261
0.13806
0.00345
0.14240
0.13811
-0.01745
0.02419
-0.01480
-0.01490
0.02310
-0.01433
-0.00219
0.08436
0.05927
-0.00098
0.08438
0.05918
-0.03721
-0.00350
-0.02520
-0.03681
-0.00377
-0.02539
-0.00225
0.05672
0.00149
-0.00109
0.05584
0.00169
-0.03410
-0.01126
-0.03424
-0.01326
-0.00599
-0.00597
0.16891
0.16894
-0.00445
0.18116
0.15722
-0.00388
0.17944
0.15696
0.04178
0.04191
0.55196
0.19943
0.04186
0.04198
0.55315
0.19890
0.02313
0.21834
0.39775
0.02410
0.21907
0.39761
0.18840
0.17192
0.18860
0.17184
0.01089
0.20571
0.23746
0.01080
0.20475
0.23746
0.00332
0.16358
0.12159
0.00429
0.16253
0.12145
-0.00970
0.02719
-0.02858
-0.00911
0.02634
-0.02846
0.00013
0.08262
0.03187
0.00162
0.08193
0.03342
-0.02908
-0.00649
-0.02890
-0.02914
-0.00705
-0.03026
0.00357
0.05130
-0.02158
0.00371
0.05108
-0.02220
-0.00225
-0.00282
0.19740
0.18941
-0.00309
0.19710
0.18995
-0.04135
-0.01087
-0.04140
-0.01094
0.04411
0.02869
0.20588
0.51585
0.04506
0.02818
0.20542
0.51459
-0.00334
0.22583
0.20216
-0.00255
0.22631
0.20132
0.02317
0.24455
0.39660
0.02376
0.24415
0.39679
0.20075
0.33532
0.20130
0.33627
0.01234
0.22463
0.21920
0.01279
0.22330
0.21789
0.00223
0.16078
0.09845
0.00352
0.15958
0.09865
-0.00037
0.01761
-0.04428
-0.00039
0.01554
-0.04411
0.00455
0.07459
0.01366
0.00496
0.07390
0.01360
-0.01479
-0.01919
-0.04337
-0.01452
-0.02008
-0.04224
0.01228
0.04053
-0.04079
0.01261
0.03993
-0.04051
0.00229
0.00162
0.20794
0.20837
0.00421
0.06271
0.21999
0.26362
0.00414
0.06290
0.21928
0.26407
0.21278
0.27862
0.21254
0.27999
0.07839
0.21836
0.29352
0.07937
0.21655
0.29300
0.04537
0.21888
0.48844
0.04595
0.21910
0.48853
0.02300
0.01276
0.21309
0.20677
0.02283
0.01306
0.21269
0.20714
0.25831
0.39273
0.25880
0.39342
0.00306
0.14104
0.07942
0.00478
0.13912
0.07974
-0.04267
-0.00559
-0.04326
-0.00414
0.00272
0.01102
-0.06197
0.00199
0.01190
-0.06155
0.00990
0.05196
-0.00563
0.00895
0.05116
-0.00509
0.00213
0.01967
-0.04207
0.00335
0.01871
-0.04074
-0.00132
-0.02306
-0.07770
-0.00119
-0.02366
-0.07666
0.00534
0.00378
0.31511
0.21468
0.00390
0.21373
0.31553
0.00147
0.31377
0.22042
0.00205
0.21962
0.31348
0.05271
0.31471
0.22025
0.05202
0.22007
0.31447
0.06848
0.29351
0.23543
0.06842
0.23472
0.29520
0.03733
0.50577
0.25274
0.03861
0.25328
0.50604
0.02208
0.36242
0.26032
0.02223
0.26045
0.36275
0.01104
0.18519
0.17979
0.01139
0.18069
0.18545
0.00751
0.06787
0.10138
0.00797
0.10090
0.06842
-0.03004
-0.00199
-0.03115
-0.00199
-0.00529
-0.00232
-0.07229
-0.00353
-0.00289
-0.07229
0.00091
0.02576
0.00834
0.02512
0.00160
0.00834
-0.00289
-0.03115
-0.07666
0.00160
-0.00353
-0.04074
0.01009
0.02512
0.06842
0.01777
0.10090
0.18545
0.03283
0.18069
0.36275
0.05206
0.26045
0.50604
0.04213
0.25328
0.29520
-0.00406
0.23472
0.31447
0.00117
0.22007
0.31348
0.00287
0.21962
0.31553
0.00287
0.21373
0.21468
0.00117
0.22042
0.31511
-0.00406
0.22025
0.31377
0.04213
0.23543
0.31471
0.05206
0.25274
0.29351
0.03283
0.26032
0.50577
0.01777
0.17979
0.36242
0.01009
0.10138
0.18519
0.02576
0.06787
0.00091
-0.00232
-0.04207
-0.00529
-0.03004
-0.07770
0.00797
0.01871
-0.00509
0.00751
0.01967
-0.00563
-0.02366
0.00335
-0.06155
-0.02306
0.00213
-0.06197
-0.00119
-0.00414
-0.00132
-0.00559
0.01139
0.05116
0.07974
0.01104
0.05196
0.07942
0.02223
0.13912
0.20714
0.02208
0.14104
0.20677
0.03861
0.39342
0.21269
0.03733
0.39273
0.21309
0.06842
0.25880
0.48853
0.06848
0.25831
0.48844
0.05202
0.21910
0.29300
0.05271
0.21888
0.29352
0.00205
0.21655
0.26407
0.00147
0.21836
0.26362
0.00390
0.27999
0.21928
0.00378
0.27862
0.21999
0.00534
0.21254
0.20837
0.21278
0.20794
0.01190
-0.04326
-0.04224
0.01102
-0.04267
-0.04337
0.00895
0.00199
-0.04051
0.00990
0.00272
-0.04079
0.00478
0.03993
0.01360
0.00306
0.04053
0.01366
0.01261
-0.02008
-0.04411
0.01228
-0.01919
-0.04428
-0.01452
-0.01094
-0.01479
-0.01087
0.01306
0.07390
0.09865
0.01276
0.07459
0.09845
0.02283
0.04595
0.21789
0.39679
0.02300
0.04537
0.21920
0.39660
0.15958
0.22330
0.16078
0.22463
0.07937
0.24415
0.51459
0.07839
0.24455
0.51585
0.06290
0.33627
0.20542
0.06271
0.33532
0.20588
0.00414
0.00162
0.20132
0.18995
0.00421
0.00229
0.20216
0.18941
0.20130
0.22631
0.20075
0.22583
0.19710
0.19740
0.00496
0.01554
-0.02220
0.00455
0.01761
-0.02158
-0.00039
-0.04140
-0.03026
-0.00037
-0.04135
-0.02890
0.00352
0.05108
0.03342
0.00223
0.05130
0.03187
0.00371
-0.00705
-0.02846
0.00357
-0.00649
-0.02858
0.01279
0.08193
0.12145
0.01234
0.08262
0.12159
0.02376
0.16253
0.23746
0.02317
0.16358
0.23746
-0.00255
0.02818
0.17184
0.19890
-0.00334
0.02869
0.17192
0.19943
0.04506
0.20475
0.39761
0.04411
0.20571
0.39775
-0.00309
0.18860
0.15696
-0.00282
0.18840
0.15722
0.21907
0.55315
0.21834
0.55196
-0.02914
-0.01326
-0.02908
-0.01126
-0.00225
0.17944
0.16894
0.18116
0.16891
0.00162
0.02634
0.00169
0.00013
0.02719
0.00149
-0.00911
-0.03424
-0.02539
-0.00970
-0.03410
-0.02520
0.00429
0.05584
0.05918
0.00332
0.05672
0.05927
-0.00109
-0.00377
-0.01433
-0.00225
-0.00350
-0.01480
0.01080
0.08438
0.13811
0.01089
0.08436
0.13806
0.02410
0.14240
0.24188
0.02313
0.14261
0.24041
0.04198
-0.00388
0.16817
0.13961
0.04191
-0.00445
0.16899
0.13984
0.04186
0.17273
0.37411
0.04178
0.17269
0.37488
0.33007
0.19920
0.33069
0.20043
-0.00597
0.16800
0.15401
-0.00599
0.16797
0.15256
0.16118
0.16089
-0.03681
-0.00826
-0.03721
-0.00884
-0.00098
0.02310
0.02085
-0.00219
0.02419
0.02144
-0.01490
-0.03033
-0.02958
-0.01745
-0.02991
-0.03088
0.00345
0.05010
0.07155
0.00304
0.05143
0.07309
-0.01054
-0.01582
-0.00443
-0.01102
-0.01690
-0.00352
0.00951
0.07256
0.14493
0.00822
0.07407
0.14507
0.02109
0.12105
0.23598
0.02032
0.12243
0.23640
0.00297
-0.00541
0.17997
0.11711
0.00321
-0.00563
0.18013
0.11630
0.14540
0.35289
0.14557
0.35221
-0.00757
0.15471
0.12811
-0.00798
0.15406
0.12685
-0.00688
0.14854
0.14049
0.14885
0.14061
-0.04735
-0.04858
-0.00566
0.01842
0.03181
-0.00638
0.01874
0.03111
-0.03214
-0.03037
-0.03375
-0.03427
0.00409
0.04209
0.08355
0.00263
0.04285
0.08334
0.00740
0.05887
0.14343
0.00615
0.05997
0.14361
0.01929
0.09649
0.21260
0.01939
0.09690
0.21300
0.02116
0.11512
0.24188
0.02138
0.11549
0.24103
-0.01727
-0.00810
-0.00228
-0.01915
-0.00836
-0.00263
-0.00926
0.15007
0.10947