# vtk DataFile Version 3.0
Point representing Sub_cellular elem model
ASCII

DATASET UNSTRUCTURED_GRID
POINTS 36 float
-39.58449 -23.00121 63.65362 
-39.64265 23.09845 62.95592 
0.07053 -42.05604 68.31640 
0.00000 0.00000 78.02481 
-0.07053 42.05604 68.31640 
39.64265 -23.09845 62.95592 
39.58449 23.00121 63.65362 
-32.71742 -20.85015 55.88472 
-32.68219 20.81110 55.67438 
-0.00865 -35.33694 59.86500 
0.00000 0.00000 67.76062 
0.00865 35.33694 59.86500 
32.68219 -20.81110 55.67438 
32.71742 20.85015 55.88472 
-26.96649 -17.70127 47.03175 
-26.93916 17.66351 47.00363 
-0.02330 -29.17373 50.28728 
0.00000 0.00000 56.71598 
0.02330 29.17373 50.28728 
26.93916 -17.66351 47.00363 
26.96649 17.70127 47.03175 
-22.27177 -14.47134 37.34008 
-22.26316 14.46045 37.36971 
-0.01663 -25.40054 40.33742 
0.00000 0.00000 47.14326 
0.01663 25.40054 40.33742 
22.26316 -14.46045 37.36971 
22.27177 14.47134 37.34008 
-14.30417 -11.59442 28.74280 
-14.32178 11.60466 28.79937 
-0.01378 -18.29528 30.40576 
0.00000 0.00000 34.76305 
0.01378 18.29528 30.40576 
14.32178 -11.60466 28.79937 
14.30417 11.59442 28.74280 
0.00000 0.00000 -0.10000 
CELLS 233 698
2 0 1
2 0 2
2 0 3
2 1 3
2 1 4
2 2 3
2 2 5
2 3 4
2 3 5
2 3 6
2 4 6
2 5 6
2 7 8
2 7 9
2 7 10
2 8 10
2 8 11
2 9 10
2 9 12
2 10 11
2 10 12
2 10 13
2 11 13
2 12 13
2 14 15
2 14 16
2 14 17
2 15 17
2 15 18
2 16 17
2 16 19
2 17 18
2 17 19
2 17 20
2 18 20
2 19 20
2 21 22
2 21 23
2 21 24
2 22 24
2 22 25
2 23 24
2 23 26
2 24 25
2 24 26
2 24 27
2 25 27
2 26 27
2 28 29
2 28 30
2 28 31
2 29 31
2 29 32
2 30 31
2 30 33
2 31 32
2 31 33
2 31 34
2 32 34
2 33 34
2 0 1
2 0 2
2 0 3
2 0 7
2 0 8
2 0 9
2 0 10
2 1 3
2 1 4
2 1 7
2 1 8
2 1 10
2 1 11
2 2 3
2 2 5
2 2 7
2 2 9
2 2 10
2 2 12
2 3 4
2 3 5
2 3 6
2 3 7
2 3 8
2 3 9
2 3 10
2 3 11
2 3 12
2 3 13
2 4 6
2 4 8
2 4 10
2 4 11
2 4 13
2 5 6
2 5 9
2 5 10
2 5 12
2 5 13
2 6 10
2 6 11
2 6 12
2 6 13
2 7 8
2 7 9
2 7 10
2 7 14
2 7 15
2 7 16
2 7 17
2 8 10
2 8 11
2 8 14
2 8 15
2 8 17
2 8 18
2 9 10
2 9 12
2 9 14
2 9 16
2 9 17
2 9 19
2 10 11
2 10 12
2 10 13
2 10 14
2 10 15
2 10 16
2 10 17
2 10 18
2 10 19
2 10 20
2 11 13
2 11 15
2 11 17
2 11 18
2 11 20
2 12 13
2 12 16
2 12 17
2 12 19
2 12 20
2 13 17
2 13 18
2 13 19
2 13 20
2 14 15
2 14 16
2 14 17
2 14 21
2 14 22
2 14 23
2 14 24
2 15 17
2 15 18
2 15 21
2 15 22
2 15 24
2 15 25
2 16 17
2 16 19
2 16 21
2 16 23
2 16 24
2 16 26
2 17 18
2 17 19
2 17 20
2 17 21
2 17 22
2 17 23
2 17 24
2 17 25
2 17 26
2 17 27
2 18 20
2 18 22
2 18 24
2 18 25
2 18 27
2 19 20
2 19 23
2 19 24
2 19 26
2 19 27
2 20 24
2 20 25
2 20 26
2 20 27
2 21 22
2 21 23
2 21 24
2 21 28
2 21 29
2 21 30
2 21 31
2 22 24
2 22 25
2 22 28
2 22 29
2 22 31
2 22 32
2 23 24
2 23 26
2 23 28
2 23 30
2 23 31
2 23 33
2 24 25
2 24 26
2 24 27
2 24 28
2 24 29
2 24 30
2 24 31
2 24 32
2 24 33
2 24 34
2 25 27
2 25 29
2 25 31
2 25 32
2 25 34
2 26 27
2 26 30
2 26 31
2 26 33
2 26 34
2 27 31
2 27 32
2 27 33
2 27 34
1 35
CELL_TYPES 233
3
3
3
3
3
3
3
3
3
3
3
3
3
3
3
3
3
3
3
3
3
3
3
3
3
3
3
3
3
3
3
3
3
3
3
3
3
3
3
3
3
3
3
3
3
3
3
3
3
3
3
3
3
3
3
3
3
3
3
3
3
3
3
3
3
3
3
3
3
3
3
3
3
3
3
3
3
3
3
3
3
3
3
3
3
3
3
3
3
3
3
3
3
3
3
3
3
3
3
3
3
3
3
3
3
3
3
3
3
3
3
3
3
3
3
3
3
3
3
3
3
3
3
3
3
3
3
3
3
3
3
3
3
3
3
3
3
3
3
3
3
3
3
3
3
3
3
3
3
3
3
3
3
3
3
3
3
3
3
3
3
3
3
3
3
3
3
3
3
3
3
3
3
3
3
3
3
3
3
3
3
3
3
3
3
3
3
3
3
3
3
3
3
3
3
3
3
3
3
3
3
3
3
3
3
3
3
3
3
3
3
3
3
3
3
3
3
3
3
3
3
3
3
3
3
3
3
3
3
3
3
3
1
CELL_DATA 233
SCALARS Strain double 1
LOOKUP_TABLE default
0.00646
-0.10199
0.04867
0.04086
-0.10110
0.00432
-0.10110
0.00432
0.04086
0.04867
-0.10199
0.00646
0.00422
0.03654
0.11689
0.11653
0.03586
0.05311
0.03586
0.05311
0.11653
0.11689
0.03654
0.00422
0.01477
0.18753
0.16079
0.16223
0.18599
0.14770
0.18599
0.14770
0.16223
0.16079
0.18753
0.01477
-0.00047
0.10561
0.12862
0.12919
0.10497
0.01306
0.10497
0.01306
0.12919
0.12862
0.10561
-0.00047
-0.01409
0.22323
0.10640
0.10688
0.22309
-0.01692
0.22309
-0.01692
0.10688
0.10640
0.22323
-0.01409
-0.03941
0.04237
-0.00025
0.05896
-0.01825
0.01877
0.00138
0.00616
0.04150
-0.01859
0.03296
0.00500
0.01842
0.01692
0.04150
0.00293
0.07972
0.02937
0.00155
0.01692
0.00616
-0.00025
-0.02686
-0.02554
-0.02764
0.02642
-0.02764
-0.02554
-0.02686
0.04237
0.00155
0.02937
0.07972
0.00293
-0.03941
0.01842
0.00500
0.03296
-0.01859
0.00138
0.01877
-0.01825
0.05896
-0.00369
-0.02662
-0.02972
0.10165
0.00170
-0.03860
-0.02687
-0.02939
-0.02599
0.00013
0.08660
-0.02801
-0.03897
-0.02083
-0.02599
-0.02516
0.13894
-0.00265
-0.02455
-0.02083
-0.02939
-0.02972
-0.03845
-0.03899
-0.04399
0.10446
-0.04399
-0.03899
-0.03845
-0.02662
-0.02455
-0.00265
0.13894
-0.02516
-0.00369
-0.03897
-0.02801
0.08660
0.00013
-0.02687
-0.03860
0.00170
0.10165
-0.00760
-0.06501
-0.05490
0.12428
0.00008
-0.05039
-0.04865
-0.05584
-0.06389
-0.00080
0.11775
-0.04993
-0.05009
-0.05203
-0.06389
-0.02311
0.06412
-0.03305
-0.02241
-0.05203
-0.05584
-0.05490
-0.03038
-0.03121
-0.00403
-0.04273
-0.00403
-0.03121
-0.03038
-0.06501
-0.02241
-0.03305
0.06412
-0.02311
-0.00760
-0.05009
-0.04993
0.11775
-0.00080
-0.04865
-0.05039
0.00008
0.12428
-0.01778
-0.04121
-0.03883
0.20696
0.01924
-0.06331
-0.04792
-0.03960
-0.04032
0.01957
0.20281
-0.04829
-0.06219
0.00955
-0.04032
-0.08793
0.22116
0.03107
-0.08804
0.00955
-0.03960
-0.03883
-0.07125
-0.07217
-0.01686
0.23802
-0.01686
-0.07217
-0.07125
-0.04121
-0.08804
0.03107
0.22116
-0.08793
-0.01778
-0.06219
-0.04829
0.20281
0.01957
-0.04792
-0.06331
0.01924
0.20696
0.10000
