# vtk DataFile Version 3.0
Point representing Sub_cellular elem model
ASCII

DATASET UNSTRUCTURED_GRID
POINTS 36 float
-39.24404 -23.67220 63.39700 
-39.22850 23.66402 63.14843 
0.01539 -41.50814 67.12263 
-0.00000 -0.00000 77.34513 
-0.01539 41.50814 67.12263 
39.22850 -23.66402 63.14843 
39.24404 23.67220 63.39700 
-33.34056 -20.86685 55.36342 
-33.32561 20.84185 55.31913 
-0.00888 -35.58707 58.64280 
-0.00000 -0.00000 67.35677 
0.00888 35.58707 58.64280 
33.32561 -20.84185 55.31913 
33.34056 20.86685 55.36342 
-27.92099 -17.77594 46.87481 
-27.91777 17.77060 46.90762 
-0.00814 -29.72958 49.67171 
-0.00000 -0.00000 56.90257 
0.00814 29.72958 49.67171 
27.91777 -17.77060 46.90762 
27.92099 17.77594 46.87481 
-23.15012 -14.64740 37.99064 
-23.15764 14.65864 38.05287 
-0.00642 -25.21956 40.33071 
-0.00000 0.00000 47.03234 
0.00642 25.21956 40.33071 
23.15764 -14.65864 38.05287 
23.15012 14.64740 37.99064 
-17.23603 -11.68124 29.57996 
-17.26865 11.71782 29.66463 
-0.00041 -19.53647 31.24077 
-0.00000 0.00000 36.49235 
0.00041 19.53647 31.24077 
17.26865 -11.71782 29.66463 
17.23603 11.68124 29.57996 
0.00000 0.00000 -0.10000 
CELLS 233 698
2 0 1
2 0 2
2 0 3
2 1 3
2 1 4
2 2 3
2 2 5
2 3 4
2 3 5
2 3 6
2 4 6
2 5 6
2 7 8
2 7 9
2 7 10
2 8 10
2 8 11
2 9 10
2 9 12
2 10 11
2 10 12
2 10 13
2 11 13
2 12 13
2 14 15
2 14 16
2 14 17
2 15 17
2 15 18
2 16 17
2 16 19
2 17 18
2 17 19
2 17 20
2 18 20
2 19 20
2 21 22
2 21 23
2 21 24
2 22 24
2 22 25
2 23 24
2 23 26
2 24 25
2 24 26
2 24 27
2 25 27
2 26 27
2 28 29
2 28 30
2 28 31
2 29 31
2 29 32
2 30 31
2 30 33
2 31 32
2 31 33
2 31 34
2 32 34
2 33 34
2 0 1
2 0 2
2 0 3
2 0 7
2 0 8
2 0 9
2 0 10
2 1 3
2 1 4
2 1 7
2 1 8
2 1 10
2 1 11
2 2 3
2 2 5
2 2 7
2 2 9
2 2 10
2 2 12
2 3 4
2 3 5
2 3 6
2 3 7
2 3 8
2 3 9
2 3 10
2 3 11
2 3 12
2 3 13
2 4 6
2 4 8
2 4 10
2 4 11
2 4 13
2 5 6
2 5 9
2 5 10
2 5 12
2 5 13
2 6 10
2 6 11
2 6 12
2 6 13
2 7 8
2 7 9
2 7 10
2 7 14
2 7 15
2 7 16
2 7 17
2 8 10
2 8 11
2 8 14
2 8 15
2 8 17
2 8 18
2 9 10
2 9 12
2 9 14
2 9 16
2 9 17
2 9 19
2 10 11
2 10 12
2 10 13
2 10 14
2 10 15
2 10 16
2 10 17
2 10 18
2 10 19
2 10 20
2 11 13
2 11 15
2 11 17
2 11 18
2 11 20
2 12 13
2 12 16
2 12 17
2 12 19
2 12 20
2 13 17
2 13 18
2 13 19
2 13 20
2 14 15
2 14 16
2 14 17
2 14 21
2 14 22
2 14 23
2 14 24
2 15 17
2 15 18
2 15 21
2 15 22
2 15 24
2 15 25
2 16 17
2 16 19
2 16 21
2 16 23
2 16 24
2 16 26
2 17 18
2 17 19
2 17 20
2 17 21
2 17 22
2 17 23
2 17 24
2 17 25
2 17 26
2 17 27
2 18 20
2 18 22
2 18 24
2 18 25
2 18 27
2 19 20
2 19 23
2 19 24
2 19 26
2 19 27
2 20 24
2 20 25
2 20 26
2 20 27
2 21 22
2 21 23
2 21 24
2 21 28
2 21 29
2 21 30
2 21 31
2 22 24
2 22 25
2 22 28
2 22 29
2 22 31
2 22 32
2 23 24
2 23 26
2 23 28
2 23 30
2 23 31
2 23 33
2 24 25
2 24 26
2 24 27
2 24 28
2 24 29
2 24 30
2 24 31
2 24 32
2 24 33
2 24 34
2 25 27
2 25 29
2 25 31
2 25 32
2 25 34
2 26 27
2 26 30
2 26 31
2 26 33
2 26 34
2 27 31
2 27 32
2 27 33
2 27 34
1 35
CELL_TYPES 233
3
3
3
3
3
3
3
3
3
3
3
3
3
3
3
3
3
3
3
3
3
3
3
3
3
3
3
3
3
3
3
3
3
3
3
3
3
3
3
3
3
3
3
3
3
3
3
3
3
3
3
3
3
3
3
3
3
3
3
3
3
3
3
3
3
3
3
3
3
3
3
3
3
3
3
3
3
3
3
3
3
3
3
3
3
3
3
3
3
3
3
3
3
3
3
3
3
3
3
3
3
3
3
3
3
3
3
3
3
3
3
3
3
3
3
3
3
3
3
3
3
3
3
3
3
3
3
3
3
3
3
3
3
3
3
3
3
3
3
3
3
3
3
3
3
3
3
3
3
3
3
3
3
3
3
3
3
3
3
3
3
3
3
3
3
3
3
3
3
3
3
3
3
3
3
3
3
3
3
3
3
3
3
3
3
3
3
3
3
3
3
3
3
3
3
3
3
3
3
3
3
3
3
3
3
3
3
3
3
3
3
3
3
3
3
3
3
3
3
3
3
3
3
3
3
3
3
3
3
3
3
3
1
CELL_DATA 233
SCALARS Strain double 1
LOOKUP_TABLE default
-0.01581
-0.06402
0.03490
0.03611
-0.06438
0.01071
-0.06438
0.01071
0.03611
0.03490
-0.06402
-0.01581
-0.00305
0.00832
0.06550
0.06519
0.00878
0.02552
0.00878
0.02552
0.06519
0.06550
0.00832
-0.00305
0.00714
0.08326
0.07721
0.07675
0.08366
0.07414
0.08366
0.07414
0.07675
0.07721
0.08326
0.00714
-0.00507
0.05062
0.06390
0.06362
0.05096
0.00882
0.05096
0.00882
0.06362
0.06390
0.05062
-0.00507
0.00533
0.07179
0.02377
0.02464
0.07225
-0.01710
0.07225
-0.01710
0.02464
0.02377
0.07179
0.00533
-0.01375
0.01974
-0.00188
0.03566
-0.00601
0.01027
0.00216
-0.00071
0.01935
-0.00685
0.02032
0.00226
0.00969
0.00718
0.01935
0.00223
0.03425
0.01589
0.00194
0.00718
-0.00071
-0.00188
-0.01840
-0.01842
-0.01609
-0.00116
-0.01609
-0.01842
-0.01840
0.01974
0.00194
0.01589
0.03425
0.00223
-0.01375
0.00969
0.00226
0.02032
-0.00685
0.00216
0.01027
-0.00601
0.03566
-0.00257
-0.01065
-0.01665
0.05348
0.00113
-0.01726
-0.01290
-0.01693
-0.01020
0.00053
0.04609
-0.01351
-0.01725
-0.00920
-0.01020
-0.01213
0.07141
0.00164
-0.01203
-0.00920
-0.01693
-0.01665
-0.02389
-0.02444
-0.02753
0.04542
-0.02753
-0.02444
-0.02389
-0.01065
-0.01203
0.00164
0.07141
-0.01213
-0.00257
-0.01725
-0.01351
0.04609
0.00053
-0.01290
-0.01726
0.00113
0.05348
-0.00250
-0.03236
-0.02949
0.05583
0.00124
-0.02384
-0.02380
-0.02990
-0.03201
0.00152
0.05237
-0.02397
-0.02326
-0.02909
-0.03201
-0.01168
0.03727
-0.01644
-0.01205
-0.02909
-0.02990
-0.02949
-0.01823
-0.01897
-0.00555
-0.01298
-0.00555
-0.01897
-0.01823
-0.03236
-0.01205
-0.01644
0.03727
-0.01168
-0.00250
-0.02326
-0.02397
0.05237
0.00152
-0.02380
-0.02384
0.00124
0.05583
-0.00507
-0.01905
-0.02061
0.07012
0.00853
-0.02447
-0.02114
-0.02087
-0.01874
0.00954
0.06627
-0.02057
-0.02357
0.00181
-0.01874
-0.03228
0.07203
0.01144
-0.03328
0.00181
-0.02087
-0.02061
-0.03068
-0.03131
-0.00400
0.05400
-0.00400
-0.03131
-0.03068
-0.01905
-0.03328
0.01144
0.07203
-0.03228
-0.00507
-0.02357
-0.02057
0.06627
0.00954
-0.02114
-0.02447
0.00853
0.07012
0.10000
