# vtk DataFile Version 3.0
Point representing Sub_cellular elem model
ASCII

DATASET UNSTRUCTURED_GRID
POINTS 36 float
-39.07783 -23.81039 63.16271 
-39.06893 23.80602 63.03125 
0.00813 -41.22587 66.65035 
-0.00000 -0.00000 77.45882 
-0.00813 41.22587 66.65035 
39.06893 -23.80602 63.03125 
39.07783 23.81039 63.16271 
-33.55029 -20.88466 55.09441 
-33.54311 20.87085 55.07464 
-0.00512 -35.58601 58.17063 
-0.00000 -0.00000 67.46213 
0.00512 35.58601 58.17063 
33.54311 -20.87085 55.07464 
33.55029 20.88466 55.09441 
-28.30577 -17.79559 46.77501 
-28.30545 17.79321 46.79872 
-0.00427 -29.97955 49.41495 
-0.00000 -0.00000 57.20702 
0.00427 29.97955 49.41495 
28.30545 -17.79321 46.79872 
28.30577 17.79559 46.77501 
-23.44067 -14.68034 38.22500 
-23.44661 14.68771 38.26679 
-0.00325 -25.15586 40.42450 
-0.00000 -0.00000 47.30215 
0.00325 25.15586 40.42450 
23.44661 -14.68771 38.26679 
23.44067 14.68034 38.22500 
-17.90727 -11.66365 29.95843 
-17.92905 11.68770 30.01424 
0.00062 -19.65193 31.59528 
-0.00000 -0.00000 36.99949 
-0.00062 19.65193 31.59528 
17.92905 -11.68770 30.01424 
17.90727 11.66365 29.95843 
0.00000 0.00000 -0.10000 
CELLS 233 698
2 0 1
2 0 2
2 0 3
2 1 3
2 1 4
2 2 3
2 2 5
2 3 4
2 3 5
2 3 6
2 4 6
2 5 6
2 7 8
2 7 9
2 7 10
2 8 10
2 8 11
2 9 10
2 9 12
2 10 11
2 10 12
2 10 13
2 11 13
2 12 13
2 14 15
2 14 16
2 14 17
2 15 17
2 15 18
2 16 17
2 16 19
2 17 18
2 17 19
2 17 20
2 18 20
2 19 20
2 21 22
2 21 23
2 21 24
2 22 24
2 22 25
2 23 24
2 23 26
2 24 25
2 24 26
2 24 27
2 25 27
2 26 27
2 28 29
2 28 30
2 28 31
2 29 31
2 29 32
2 30 31
2 30 33
2 31 32
2 31 33
2 31 34
2 32 34
2 33 34
2 0 1
2 0 2
2 0 3
2 0 7
2 0 8
2 0 9
2 0 10
2 1 3
2 1 4
2 1 7
2 1 8
2 1 10
2 1 11
2 2 3
2 2 5
2 2 7
2 2 9
2 2 10
2 2 12
2 3 4
2 3 5
2 3 6
2 3 7
2 3 8
2 3 9
2 3 10
2 3 11
2 3 12
2 3 13
2 4 6
2 4 8
2 4 10
2 4 11
2 4 13
2 5 6
2 5 9
2 5 10
2 5 12
2 5 13
2 6 10
2 6 11
2 6 12
2 6 13
2 7 8
2 7 9
2 7 10
2 7 14
2 7 15
2 7 16
2 7 17
2 8 10
2 8 11
2 8 14
2 8 15
2 8 17
2 8 18
2 9 10
2 9 12
2 9 14
2 9 16
2 9 17
2 9 19
2 10 11
2 10 12
2 10 13
2 10 14
2 10 15
2 10 16
2 10 17
2 10 18
2 10 19
2 10 20
2 11 13
2 11 15
2 11 17
2 11 18
2 11 20
2 12 13
2 12 16
2 12 17
2 12 19
2 12 20
2 13 17
2 13 18
2 13 19
2 13 20
2 14 15
2 14 16
2 14 17
2 14 21
2 14 22
2 14 23
2 14 24
2 15 17
2 15 18
2 15 21
2 15 22
2 15 24
2 15 25
2 16 17
2 16 19
2 16 21
2 16 23
2 16 24
2 16 26
2 17 18
2 17 19
2 17 20
2 17 21
2 17 22
2 17 23
2 17 24
2 17 25
2 17 26
2 17 27
2 18 20
2 18 22
2 18 24
2 18 25
2 18 27
2 19 20
2 19 23
2 19 24
2 19 26
2 19 27
2 20 24
2 20 25
2 20 26
2 20 27
2 21 22
2 21 23
2 21 24
2 21 28
2 21 29
2 21 30
2 21 31
2 22 24
2 22 25
2 22 28
2 22 29
2 22 31
2 22 32
2 23 24
2 23 26
2 23 28
2 23 30
2 23 31
2 23 33
2 24 25
2 24 26
2 24 27
2 24 28
2 24 29
2 24 30
2 24 31
2 24 32
2 24 33
2 24 34
2 25 27
2 25 29
2 25 31
2 25 32
2 25 34
2 26 27
2 26 30
2 26 31
2 26 33
2 26 34
2 27 31
2 27 32
2 27 33
2 27 34
1 35
CELL_TYPES 233
3
3
3
3
3
3
3
3
3
3
3
3
3
3
3
3
3
3
3
3
3
3
3
3
3
3
3
3
3
3
3
3
3
3
3
3
3
3
3
3
3
3
3
3
3
3
3
3
3
3
3
3
3
3
3
3
3
3
3
3
3
3
3
3
3
3
3
3
3
3
3
3
3
3
3
3
3
3
3
3
3
3
3
3
3
3
3
3
3
3
3
3
3
3
3
3
3
3
3
3
3
3
3
3
3
3
3
3
3
3
3
3
3
3
3
3
3
3
3
3
3
3
3
3
3
3
3
3
3
3
3
3
3
3
3
3
3
3
3
3
3
3
3
3
3
3
3
3
3
3
3
3
3
3
3
3
3
3
3
3
3
3
3
3
3
3
3
3
3
3
3
3
3
3
3
3
3
3
3
3
3
3
3
3
3
3
3
3
3
3
3
3
3
3
3
3
3
3
3
3
3
3
3
3
3
3
3
3
3
3
3
3
3
3
3
3
3
3
3
3
3
3
3
3
3
3
3
3
3
3
3
3
1
CELL_DATA 233
SCALARS Strain double 1
LOOKUP_TABLE default
-0.00912
-0.03844
0.01989
0.02053
-0.03867
0.00617
-0.03867
0.00617
0.02053
0.01989
-0.03844
-0.00912
-0.00173
0.00491
0.03666
0.03649
0.00518
0.01454
0.00518
0.01454
0.03649
0.03666
0.00491
-0.00173
0.00426
0.04617
0.04280
0.04255
0.04639
0.04101
0.04639
0.04101
0.04255
0.04280
0.04617
0.00426
-0.00296
0.02878
0.03603
0.03587
0.02898
0.00526
0.02898
0.00526
0.03587
0.03603
0.02878
-0.00296
0.00327
0.03931
0.01337
0.01393
0.03954
-0.00975
0.03954
-0.00975
0.01393
0.01337
0.03931
0.00327
-0.00792
0.01151
-0.00115
0.02084
-0.00346
0.00620
0.00130
-0.00052
0.01127
-0.00388
0.01221
0.00135
0.00587
0.00413
0.01127
0.00119
0.01840
0.00916
0.00102
0.00413
-0.00052
-0.00115
-0.01075
-0.01080
-0.00936
-0.00033
-0.00936
-0.01080
-0.01075
0.01151
0.00102
0.00916
0.01840
0.00119
-0.00792
0.00587
0.00135
0.01221
-0.00388
0.00130
0.00620
-0.00346
0.02084
-0.00145
-0.00606
-0.00972
0.03082
0.00068
-0.00993
-0.00754
-0.00989
-0.00579
0.00039
0.02662
-0.00785
-0.00988
-0.00539
-0.00579
-0.00715
0.03969
0.00078
-0.00710
-0.00539
-0.00989
-0.00972
-0.01403
-0.01437
-0.01627
0.02551
-0.01627
-0.01437
-0.01403
-0.00606
-0.00710
0.00078
0.03969
-0.00715
-0.00145
-0.00988
-0.00785
0.02662
0.00039
-0.00754
-0.00993
0.00068
0.03082
-0.00132
-0.01864
-0.01715
0.03187
0.00065
-0.01384
-0.01379
-0.01739
-0.01844
0.00089
0.02978
-0.01385
-0.01346
-0.01706
-0.01844
-0.00670
0.02027
-0.00961
-0.00697
-0.01706
-0.01739
-0.01715
-0.01066
-0.01114
-0.00347
-0.00951
-0.00347
-0.01114
-0.01066
-0.01864
-0.00697
-0.00961
0.02027
-0.00670
-0.00132
-0.01346
-0.01385
0.02978
0.00089
-0.01379
-0.01384
0.00065
0.03187
-0.00296
-0.01082
-0.01174
0.03950
0.00476
-0.01422
-0.01223
-0.01189
-0.01063
0.00541
0.03706
-0.01185
-0.01366
0.00120
-0.01063
-0.01904
0.04043
0.00660
-0.01968
0.00120
-0.01189
-0.01174
-0.01803
-0.01841
-0.00254
0.03027
-0.00254
-0.01841
-0.01803
-0.01082
-0.01968
0.00660
0.04043
-0.01904
-0.00296
-0.01366
-0.01185
0.03706
0.00541
-0.01223
-0.01422
0.00476
0.03950
0.10000
