# vtk DataFile Version 3.0
Point representing Sub_cellular elem model
ASCII

DATASET UNSTRUCTURED_GRID
POINTS 36 float
-39.94223 -22.50961 64.41066 
-39.94892 22.64017 62.56298 
0.17147 -42.81358 70.46292 
0.00000 0.00000 77.71488 
-0.17147 42.81358 70.46292 
39.94892 -22.64017 62.56298 
39.94223 22.50961 64.41066 
-32.01808 -20.82258 56.89976 
-31.91313 20.73252 56.31491 
-0.01001 -35.20247 61.47232 
0.00000 0.00000 67.61641 
0.01001 35.20247 61.47232 
31.91313 -20.73252 56.31491 
32.01808 20.82258 56.89976 
-25.87843 -17.64392 47.45592 
-25.80738 17.57272 47.32886 
-0.04831 -28.46148 50.79464 
0.00000 0.00000 56.00496 
0.04831 28.46148 50.79464 
25.80738 -17.57272 47.32886 
25.87843 17.64392 47.45592 
-21.45856 -14.41075 36.86614 
-21.42668 14.39601 36.88005 
-0.03687 -25.44678 39.78651 
0.00000 0.00000 46.09953 
0.03687 25.44678 39.78651 
21.42668 -14.39601 36.88005 
21.45856 14.41075 36.86614 
-12.90631 -11.62804 27.60849 
-12.90421 11.64353 27.68103 
-0.02955 -17.94069 29.04233 
0.00000 0.00000 33.17262 
0.02955 17.94069 29.04233 
12.90421 -11.64353 27.68103 
12.90631 11.62804 27.60849 
0.00000 0.00000 -0.10000 
CELLS 233 698
2 0 1
2 0 2
2 0 3
2 1 3
2 1 4
2 2 3
2 2 5
2 3 4
2 3 5
2 3 6
2 4 6
2 5 6
2 7 8
2 7 9
2 7 10
2 8 10
2 8 11
2 9 10
2 9 12
2 10 11
2 10 12
2 10 13
2 11 13
2 12 13
2 14 15
2 14 16
2 14 17
2 15 17
2 15 18
2 16 17
2 16 19
2 17 18
2 17 19
2 17 20
2 18 20
2 19 20
2 21 22
2 21 23
2 21 24
2 22 24
2 22 25
2 23 24
2 23 26
2 24 25
2 24 26
2 24 27
2 25 27
2 26 27
2 28 29
2 28 30
2 28 31
2 29 31
2 29 32
2 30 31
2 30 33
2 31 32
2 31 33
2 31 34
2 32 34
2 33 34
2 0 1
2 0 2
2 0 3
2 0 7
2 0 8
2 0 9
2 0 10
2 1 3
2 1 4
2 1 7
2 1 8
2 1 10
2 1 11
2 2 3
2 2 5
2 2 7
2 2 9
2 2 10
2 2 12
2 3 4
2 3 5
2 3 6
2 3 7
2 3 8
2 3 9
2 3 10
2 3 11
2 3 12
2 3 13
2 4 6
2 4 8
2 4 10
2 4 11
2 4 13
2 5 6
2 5 9
2 5 10
2 5 12
2 5 13
2 6 10
2 6 11
2 6 12
2 6 13
2 7 8
2 7 9
2 7 10
2 7 14
2 7 15
2 7 16
2 7 17
2 8 10
2 8 11
2 8 14
2 8 15
2 8 17
2 8 18
2 9 10
2 9 12
2 9 14
2 9 16
2 9 17
2 9 19
2 10 11
2 10 12
2 10 13
2 10 14
2 10 15
2 10 16
2 10 17
2 10 18
2 10 19
2 10 20
2 11 13
2 11 15
2 11 17
2 11 18
2 11 20
2 12 13
2 12 16
2 12 17
2 12 19
2 12 20
2 13 17
2 13 18
2 13 19
2 13 20
2 14 15
2 14 16
2 14 17
2 14 21
2 14 22
2 14 23
2 14 24
2 15 17
2 15 18
2 15 21
2 15 22
2 15 24
2 15 25
2 16 17
2 16 19
2 16 21
2 16 23
2 16 24
2 16 26
2 17 18
2 17 19
2 17 20
2 17 21
2 17 22
2 17 23
2 17 24
2 17 25
2 17 26
2 17 27
2 18 20
2 18 22
2 18 24
2 18 25
2 18 27
2 19 20
2 19 23
2 19 24
2 19 26
2 19 27
2 20 24
2 20 25
2 20 26
2 20 27
2 21 22
2 21 23
2 21 24
2 21 28
2 21 29
2 21 30
2 21 31
2 22 24
2 22 25
2 22 28
2 22 29
2 22 31
2 22 32
2 23 24
2 23 26
2 23 28
2 23 30
2 23 31
2 23 33
2 24 25
2 24 26
2 24 27
2 24 28
2 24 29
2 24 30
2 24 31
2 24 32
2 24 33
2 24 34
2 25 27
2 25 29
2 25 31
2 25 32
2 25 34
2 26 27
2 26 30
2 26 31
2 26 33
2 26 34
2 27 31
2 27 32
2 27 33
2 27 34
1 35
CELL_TYPES 233
3
3
3
3
3
3
3
3
3
3
3
3
3
3
3
3
3
3
3
3
3
3
3
3
3
3
3
3
3
3
3
3
3
3
3
3
3
3
3
3
3
3
3
3
3
3
3
3
3
3
3
3
3
3
3
3
3
3
3
3
3
3
3
3
3
3
3
3
3
3
3
3
3
3
3
3
3
3
3
3
3
3
3
3
3
3
3
3
3
3
3
3
3
3
3
3
3
3
3
3
3
3
3
3
3
3
3
3
3
3
3
3
3
3
3
3
3
3
3
3
3
3
3
3
3
3
3
3
3
3
3
3
3
3
3
3
3
3
3
3
3
3
3
3
3
3
3
3
3
3
3
3
3
3
3
3
3
3
3
3
3
3
3
3
3
3
3
3
3
3
3
3
3
3
3
3
3
3
3
3
3
3
3
3
3
3
3
3
3
3
3
3
3
3
3
3
3
3
3
3
3
3
3
3
3
3
3
3
3
3
3
3
3
3
3
3
3
3
3
3
3
3
3
3
3
3
3
3
3
3
3
3
1
CELL_DATA 233
SCALARS Strain double 1
LOOKUP_TABLE default
-0.01681
-0.16614
0.10839
0.10024
-0.16475
0.01767
-0.16475
0.01767
0.10024
0.10839
-0.16614
-0.01681
0.00108
0.04801
0.23456
0.23123
0.04825
0.10543
0.04825
0.10543
0.23123
0.23456
0.04801
0.00108
0.02386
0.35098
0.29827
0.29840
0.35046
0.27535
0.35046
0.27535
0.29840
0.29827
0.35098
0.02386
-0.00479
0.17673
0.22630
0.22610
0.17719
0.01602
0.17719
0.01602
0.22610
0.22630
0.17673
-0.00479
-0.01101
0.38150
0.13448
0.13440
0.38481
-0.03757
0.38481
-0.03757
0.13440
0.13448
0.38150
-0.01101
-0.05853
0.06883
-0.00535
0.10477
-0.02576
0.02801
0.00126
0.00744
0.06717
-0.02964
0.03562
0.00639
0.02549
0.02309
0.06717
0.01020
0.17811
0.05014
0.00769
0.02309
0.00744
-0.00535
-0.05240
-0.04884
-0.05117
0.00985
-0.05117
-0.04884
-0.05240
0.06883
0.00769
0.05014
0.17811
0.01020
-0.05853
0.02549
0.00639
0.03562
-0.02964
0.00126
0.02801
-0.02576
0.10477
-0.00614
-0.04305
-0.05136
0.17040
0.00446
-0.06014
-0.04195
-0.05063
-0.04196
-0.00079
0.13143
-0.04562
-0.06264
-0.03364
-0.04196
-0.03678
0.26276
0.00150
-0.03537
-0.03364
-0.05063
-0.05136
-0.06591
-0.06626
-0.07057
0.16115
-0.07057
-0.06626
-0.06591
-0.04305
-0.03537
0.00150
0.26276
-0.03678
-0.00614
-0.06264
-0.04562
0.13143
-0.00079
-0.04195
-0.06014
0.00446
0.17040
-0.01175
-0.10507
-0.08893
0.19219
0.00371
-0.07524
-0.07540
-0.09066
-0.10297
0.00072
0.17668
-0.07846
-0.07564
-0.08183
-0.10297
-0.03934
0.14134
-0.04941
-0.03775
-0.08183
-0.09066
-0.08893
-0.05144
-0.05251
-0.00559
-0.00946
-0.00559
-0.05251
-0.05144
-0.10507
-0.03775
-0.04941
0.14134
-0.03934
-0.01175
-0.07564
-0.07846
0.17668
0.00072
-0.07540
-0.07524
0.00371
0.19219
-0.02202
-0.06811
-0.06815
0.29070
0.03182
-0.08475
-0.06840
-0.06942
-0.06650
0.03148
0.28387
-0.06956
-0.08347
0.00654
-0.06650
-0.10911
0.31065
0.04245
-0.10941
0.00654
-0.06942
-0.06815
-0.09479
-0.09646
-0.01849
0.29269
-0.01849
-0.09646
-0.09479
-0.06811
-0.10941
0.04245
0.31065
-0.10911
-0.02202
-0.08347
-0.06956
0.28387
0.03148
-0.06840
-0.08475
0.03182
0.29070
0.10000
