# vtk DataFile Version 3.0
Point representing Sub_cellular elem model
ASCII

DATASET UNSTRUCTURED_GRID
POINTS 36 float
-39.86522 -23.00132 64.21943 
-39.76776 22.97629 62.83557 
0.09368 -42.69311 70.33510 
-0.00000 0.00000 77.08819 
-0.09368 42.69311 70.33510 
39.76776 -22.97629 62.83557 
39.86522 23.00132 64.21943 
-32.22142 -20.79919 56.72375 
-32.12126 20.69285 56.34366 
-0.02352 -35.52537 61.23493 
-0.00000 0.00000 67.30096 
0.02352 35.52537 61.23493 
32.12126 -20.69285 56.34366 
32.22142 20.79919 56.72375 
-26.00246 -17.65634 47.46530 
-25.95233 17.61239 47.42722 
-0.03744 -28.47509 50.81218 
-0.00000 0.00000 55.79151 
0.03744 28.47509 50.81218 
25.95233 -17.61239 47.42722 
26.00246 17.65634 47.46530 
-21.66303 -14.50378 37.00504 
-21.64665 14.51410 37.06720 
-0.03029 -25.41542 39.78588 
-0.00000 0.00000 45.68451 
0.03029 25.41542 39.78588 
21.64665 -14.51410 37.06720 
21.66303 14.50378 37.00504 
-13.99339 -11.73985 27.72541 
-14.02165 11.78687 27.84078 
-0.02277 -18.83161 29.21111 
-0.00000 0.00000 33.81313 
0.02277 18.83161 29.21111 
14.02165 -11.78687 27.84078 
13.99339 11.73985 27.72541 
0.00000 0.00000 -0.10000 
CELLS 233 698
2 0 1
2 0 2
2 0 3
2 1 3
2 1 4
2 2 3
2 2 5
2 3 4
2 3 5
2 3 6
2 4 6
2 5 6
2 7 8
2 7 9
2 7 10
2 8 10
2 8 11
2 9 10
2 9 12
2 10 11
2 10 12
2 10 13
2 11 13
2 12 13
2 14 15
2 14 16
2 14 17
2 15 17
2 15 18
2 16 17
2 16 19
2 17 18
2 17 19
2 17 20
2 18 20
2 19 20
2 21 22
2 21 23
2 21 24
2 22 24
2 22 25
2 23 24
2 23 26
2 24 25
2 24 26
2 24 27
2 25 27
2 26 27
2 28 29
2 28 30
2 28 31
2 29 31
2 29 32
2 30 31
2 30 33
2 31 32
2 31 33
2 31 34
2 32 34
2 33 34
2 0 1
2 0 2
2 0 3
2 0 7
2 0 8
2 0 9
2 0 10
2 1 3
2 1 4
2 1 7
2 1 8
2 1 10
2 1 11
2 2 3
2 2 5
2 2 7
2 2 9
2 2 10
2 2 12
2 3 4
2 3 5
2 3 6
2 3 7
2 3 8
2 3 9
2 3 10
2 3 11
2 3 12
2 3 13
2 4 6
2 4 8
2 4 10
2 4 11
2 4 13
2 5 6
2 5 9
2 5 10
2 5 12
2 5 13
2 6 10
2 6 11
2 6 12
2 6 13
2 7 8
2 7 9
2 7 10
2 7 14
2 7 15
2 7 16
2 7 17
2 8 10
2 8 11
2 8 14
2 8 15
2 8 17
2 8 18
2 9 10
2 9 12
2 9 14
2 9 16
2 9 17
2 9 19
2 10 11
2 10 12
2 10 13
2 10 14
2 10 15
2 10 16
2 10 17
2 10 18
2 10 19
2 10 20
2 11 13
2 11 15
2 11 17
2 11 18
2 11 20
2 12 13
2 12 16
2 12 17
2 12 19
2 12 20
2 13 17
2 13 18
2 13 19
2 13 20
2 14 15
2 14 16
2 14 17
2 14 21
2 14 22
2 14 23
2 14 24
2 15 17
2 15 18
2 15 21
2 15 22
2 15 24
2 15 25
2 16 17
2 16 19
2 16 21
2 16 23
2 16 24
2 16 26
2 17 18
2 17 19
2 17 20
2 17 21
2 17 22
2 17 23
2 17 24
2 17 25
2 17 26
2 17 27
2 18 20
2 18 22
2 18 24
2 18 25
2 18 27
2 19 20
2 19 23
2 19 24
2 19 26
2 19 27
2 20 24
2 20 25
2 20 26
2 20 27
2 21 22
2 21 23
2 21 24
2 21 28
2 21 29
2 21 30
2 21 31
2 22 24
2 22 25
2 22 28
2 22 29
2 22 31
2 22 32
2 23 24
2 23 26
2 23 28
2 23 30
2 23 31
2 23 33
2 24 25
2 24 26
2 24 27
2 24 28
2 24 29
2 24 30
2 24 31
2 24 32
2 24 33
2 24 34
2 25 27
2 25 29
2 25 31
2 25 32
2 25 34
2 26 27
2 26 30
2 26 31
2 26 33
2 26 34
2 27 31
2 27 32
2 27 33
2 27 34
1 35
CELL_TYPES 233
3
3
3
3
3
3
3
3
3
3
3
3
3
3
3
3
3
3
3
3
3
3
3
3
3
3
3
3
3
3
3
3
3
3
3
3
3
3
3
3
3
3
3
3
3
3
3
3
3
3
3
3
3
3
3
3
3
3
3
3
3
3
3
3
3
3
3
3
3
3
3
3
3
3
3
3
3
3
3
3
3
3
3
3
3
3
3
3
3
3
3
3
3
3
3
3
3
3
3
3
3
3
3
3
3
3
3
3
3
3
3
3
3
3
3
3
3
3
3
3
3
3
3
3
3
3
3
3
3
3
3
3
3
3
3
3
3
3
3
3
3
3
3
3
3
3
3
3
3
3
3
3
3
3
3
3
3
3
3
3
3
3
3
3
3
3
3
3
3
3
3
3
3
3
3
3
3
3
3
3
3
3
3
3
3
3
3
3
3
3
3
3
3
3
3
3
3
3
3
3
3
3
3
3
3
3
3
3
3
3
3
3
3
3
3
3
3
3
3
3
3
3
3
3
3
3
3
3
3
3
3
3
1
CELL_DATA 233
SCALARS Strain double 1
LOOKUP_TABLE default
-0.04761
-0.16441
0.11420
0.12116
-0.16500
0.02914
-0.16500
0.02914
0.12116
0.11420
-0.16441
-0.04761
-0.00913
0.02279
0.23677
0.23572
0.02411
0.08450
0.02411
0.08450
0.23572
0.23677
0.02279
-0.00913
0.01890
0.32088
0.29689
0.29473
0.32293
0.28773
0.32293
0.28773
0.29473
0.29689
0.32088
0.01890
-0.01485
0.16816
0.22378
0.22258
0.16948
0.02294
0.16948
0.02294
0.22258
0.22378
0.16816
-0.01485
0.01082
0.30324
0.08463
0.08537
0.30606
-0.05807
0.30606
-0.05807
0.08537
0.08463
0.30324
0.01082
-0.04163
0.05941
-0.00430
0.09298
-0.01817
0.02474
0.00491
0.00192
0.05866
-0.02315
0.02872
0.00528
0.02189
0.01838
0.05866
0.01172
0.15846
0.04751
0.01073
0.01838
0.00192
-0.00430
-0.05402
-0.05282
-0.04791
-0.02128
-0.04791
-0.05282
-0.05402
0.05941
0.01073
0.04751
0.15846
0.01172
-0.04163
0.02189
0.00528
0.02872
-0.02315
0.00491
0.02474
-0.01817
0.09298
-0.00771
-0.03479
-0.04862
0.15875
0.00346
-0.05512
-0.03797
-0.04942
-0.03354
-0.00102
0.12715
-0.04171
-0.05693
-0.02539
-0.03354
-0.03274
0.25834
0.01037
-0.03173
-0.02539
-0.04942
-0.04862
-0.06797
-0.06886
-0.07496
0.15095
-0.07496
-0.06886
-0.06797
-0.03479
-0.03173
0.01037
0.25834
-0.03274
-0.00771
-0.05693
-0.04171
0.12715
-0.00102
-0.03797
-0.05512
0.00346
0.15875
-0.01030
-0.10110
-0.08759
0.17552
0.00536
-0.07158
-0.07155
-0.08911
-0.09970
0.00382
0.16390
-0.07356
-0.07121
-0.08269
-0.09970
-0.03726
0.14429
-0.04654
-0.03696
-0.08269
-0.08911
-0.08759
-0.05229
-0.05355
-0.01022
0.01070
-0.01022
-0.05355
-0.05229
-0.10110
-0.03696
-0.04654
0.14429
-0.03726
-0.01030
-0.07121
-0.07356
0.16390
0.00382
-0.07155
-0.07158
0.00536
0.17552
-0.01485
-0.06372
-0.06717
0.23522
0.03009
-0.07204
-0.06292
-0.06809
-0.06266
0.03104
0.22763
-0.06292
-0.07022
0.00166
-0.06266
-0.08942
0.24568
0.03514
-0.09077
0.00166
-0.06809
-0.06717
-0.08607
-0.08763
-0.00799
0.18714
-0.00799
-0.08763
-0.08607
-0.06372
-0.09077
0.03514
0.24568
-0.08942
-0.01485
-0.07022
-0.06292
0.22763
0.03104
-0.06292
-0.07204
0.03009
0.23522
0.10000
