# vtk DataFile Version 3.0
Point representing Sub_cellular elem model
ASCII

DATASET UNSTRUCTURED_GRID
POINTS 36 float
-39.57898 -23.00748 63.64303 
-39.63725 23.10428 62.95473 
0.06969 -42.04523 68.29506 
0.00000 0.00000 78.03009 
-0.06969 42.04523 68.29506 
39.63725 -23.10428 62.95473 
39.57898 23.00748 63.64303 
-32.72578 -20.85070 55.87239 
-32.69103 20.81207 55.66495 
-0.00860 -35.33864 59.84637 
0.00000 0.00000 67.76475 
0.00860 35.33864 59.84637 
32.69103 -20.81207 55.66495 
32.72578 20.85070 55.87239 
-26.98005 -17.70198 47.02688 
-26.95303 17.66446 46.99925 
-0.02308 -29.18281 50.28093 
0.00000 0.00000 56.72647 
0.02308 29.18281 50.28093 
26.95303 -17.66446 46.99925 
26.98005 17.70198 47.02688 
-22.28189 -14.47216 37.34632 
-22.27339 14.46122 37.37570 
-0.01644 -25.39966 40.34417 
0.00000 0.00000 47.15630 
0.01644 25.39966 40.34417 
22.27339 -14.46122 37.37570 
22.28189 14.47216 37.34632 
-14.32185 -11.59399 28.75685 
-14.33943 11.60397 28.81282 
-0.01369 -18.29949 30.42223 
0.00000 0.00000 34.78243 
0.01369 18.29949 30.42223 
14.33943 -11.60397 28.81282 
14.32185 11.59399 28.75685 
0.00000 0.00000 -0.10000 
CELLS 233 698
2 0 1
2 0 2
2 0 3
2 1 3
2 1 4
2 2 3
2 2 5
2 3 4
2 3 5
2 3 6
2 4 6
2 5 6
2 7 8
2 7 9
2 7 10
2 8 10
2 8 11
2 9 10
2 9 12
2 10 11
2 10 12
2 10 13
2 11 13
2 12 13
2 14 15
2 14 16
2 14 17
2 15 17
2 15 18
2 16 17
2 16 19
2 17 18
2 17 19
2 17 20
2 18 20
2 19 20
2 21 22
2 21 23
2 21 24
2 22 24
2 22 25
2 23 24
2 23 26
2 24 25
2 24 26
2 24 27
2 25 27
2 26 27
2 28 29
2 28 30
2 28 31
2 29 31
2 29 32
2 30 31
2 30 33
2 31 32
2 31 33
2 31 34
2 32 34
2 33 34
2 0 1
2 0 2
2 0 3
2 0 7
2 0 8
2 0 9
2 0 10
2 1 3
2 1 4
2 1 7
2 1 8
2 1 10
2 1 11
2 2 3
2 2 5
2 2 7
2 2 9
2 2 10
2 2 12
2 3 4
2 3 5
2 3 6
2 3 7
2 3 8
2 3 9
2 3 10
2 3 11
2 3 12
2 3 13
2 4 6
2 4 8
2 4 10
2 4 11
2 4 13
2 5 6
2 5 9
2 5 10
2 5 12
2 5 13
2 6 10
2 6 11
2 6 12
2 6 13
2 7 8
2 7 9
2 7 10
2 7 14
2 7 15
2 7 16
2 7 17
2 8 10
2 8 11
2 8 14
2 8 15
2 8 17
2 8 18
2 9 10
2 9 12
2 9 14
2 9 16
2 9 17
2 9 19
2 10 11
2 10 12
2 10 13
2 10 14
2 10 15
2 10 16
2 10 17
2 10 18
2 10 19
2 10 20
2 11 13
2 11 15
2 11 17
2 11 18
2 11 20
2 12 13
2 12 16
2 12 17
2 12 19
2 12 20
2 13 17
2 13 18
2 13 19
2 13 20
2 14 15
2 14 16
2 14 17
2 14 21
2 14 22
2 14 23
2 14 24
2 15 17
2 15 18
2 15 21
2 15 22
2 15 24
2 15 25
2 16 17
2 16 19
2 16 21
2 16 23
2 16 24
2 16 26
2 17 18
2 17 19
2 17 20
2 17 21
2 17 22
2 17 23
2 17 24
2 17 25
2 17 26
2 17 27
2 18 20
2 18 22
2 18 24
2 18 25
2 18 27
2 19 20
2 19 23
2 19 24
2 19 26
2 19 27
2 20 24
2 20 25
2 20 26
2 20 27
2 21 22
2 21 23
2 21 24
2 21 28
2 21 29
2 21 30
2 21 31
2 22 24
2 22 25
2 22 28
2 22 29
2 22 31
2 22 32
2 23 24
2 23 26
2 23 28
2 23 30
2 23 31
2 23 33
2 24 25
2 24 26
2 24 27
2 24 28
2 24 29
2 24 30
2 24 31
2 24 32
2 24 33
2 24 34
2 25 27
2 25 29
2 25 31
2 25 32
2 25 34
2 26 27
2 26 30
2 26 31
2 26 33
2 26 34
2 27 31
2 27 32
2 27 33
2 27 34
1 35
CELL_TYPES 233
3
3
3
3
3
3
3
3
3
3
3
3
3
3
3
3
3
3
3
3
3
3
3
3
3
3
3
3
3
3
3
3
3
3
3
3
3
3
3
3
3
3
3
3
3
3
3
3
3
3
3
3
3
3
3
3
3
3
3
3
3
3
3
3
3
3
3
3
3
3
3
3
3
3
3
3
3
3
3
3
3
3
3
3
3
3
3
3
3
3
3
3
3
3
3
3
3
3
3
3
3
3
3
3
3
3
3
3
3
3
3
3
3
3
3
3
3
3
3
3
3
3
3
3
3
3
3
3
3
3
3
3
3
3
3
3
3
3
3
3
3
3
3
3
3
3
3
3
3
3
3
3
3
3
3
3
3
3
3
3
3
3
3
3
3
3
3
3
3
3
3
3
3
3
3
3
3
3
3
3
3
3
3
3
3
3
3
3
3
3
3
3
3
3
3
3
3
3
3
3
3
3
3
3
3
3
3
3
3
3
3
3
3
3
3
3
3
3
3
3
3
3
3
3
3
3
3
3
3
3
3
3
1
CELL_DATA 233
SCALARS Strain double 1
LOOKUP_TABLE default
0.00676
-0.10106
0.04794
0.04015
-0.10018
0.00412
-0.10018
0.00412
0.04015
0.04794
-0.10106
0.00676
0.00426
0.03638
0.11555
0.11521
0.03569
0.05249
0.03569
0.05249
0.11521
0.11555
0.03638
0.00426
0.01465
0.18572
0.15925
0.16070
0.18418
0.14626
0.18418
0.14626
0.16070
0.15925
0.18572
0.01465
-0.00041
0.10474
0.12747
0.12805
0.10409
0.01301
0.10409
0.01301
0.12805
0.12747
0.10474
-0.00041
-0.01414
0.22153
0.10606
0.10653
0.22135
-0.01667
0.22135
-0.01667
0.10653
0.10606
0.22153
-0.01414
-0.03916
0.04203
-0.00018
0.05830
-0.01815
0.01863
0.00137
0.00617
0.04117
-0.01846
0.03269
0.00498
0.01829
0.01682
0.04117
0.00286
0.07873
0.02910
0.00150
0.01682
0.00617
-0.00018
-0.02654
-0.02523
-0.02734
0.02653
-0.02734
-0.02523
-0.02654
0.04203
0.00150
0.02910
0.07873
0.00286
-0.03916
0.01829
0.00498
0.03269
-0.01846
0.00137
0.01863
-0.01815
0.05830
-0.00366
-0.02642
-0.02944
0.10077
0.00167
-0.03833
-0.02667
-0.02912
-0.02579
0.00013
0.08594
-0.02780
-0.03870
-0.02065
-0.02579
-0.02499
0.13751
-0.00267
-0.02438
-0.02065
-0.02912
-0.02944
-0.03808
-0.03862
-0.04362
0.10383
-0.04362
-0.03862
-0.03808
-0.02642
-0.02438
-0.00267
0.13751
-0.02499
-0.00366
-0.03870
-0.02780
0.08594
0.00013
-0.02667
-0.03833
0.00167
0.10077
-0.00756
-0.06451
-0.05446
0.12346
0.00004
-0.05007
-0.04830
-0.05539
-0.06340
-0.00083
0.11701
-0.04957
-0.04976
-0.05163
-0.06340
-0.02290
0.06325
-0.03282
-0.02221
-0.05163
-0.05539
-0.05446
-0.03009
-0.03092
-0.00398
-0.04298
-0.00398
-0.03092
-0.03009
-0.06451
-0.02221
-0.03282
0.06325
-0.02290
-0.00756
-0.04976
-0.04957
0.11701
-0.00083
-0.04830
-0.05007
0.00004
0.12346
-0.01772
-0.04088
-0.03847
0.20593
0.01910
-0.06303
-0.04765
-0.03923
-0.04000
0.01942
0.20182
-0.04801
-0.06191
0.00958
-0.04000
-0.08764
0.22007
0.03092
-0.08775
0.00958
-0.03923
-0.03847
-0.07094
-0.07185
-0.01682
0.23739
-0.01682
-0.07185
-0.07094
-0.04088
-0.08775
0.03092
0.22007
-0.08764
-0.01772
-0.06191
-0.04801
0.20182
0.01942
-0.04765
-0.06303
0.01910
0.20593
0.10000
