# vtk DataFile Version 3.0
Point representing Sub_cellular elem model
ASCII

DATASET UNSTRUCTURED_GRID
POINTS 36 float
-40.07520 -22.19119 64.85271 
-39.87670 22.33897 61.13022 
0.35717 -43.07881 72.80677 
0.00000 0.00000 77.56595 
-0.35717 43.07881 72.80677 
39.87670 -22.33897 61.13022 
40.07520 22.19119 64.85271 
-31.50003 -20.84848 57.69246 
-31.25846 20.67779 56.51133 
-0.00542 -35.12974 62.76171 
0.00000 0.00000 67.73775 
0.00542 35.12974 62.76171 
31.25846 -20.67779 56.51133 
31.50003 20.84848 57.69246 
-25.14081 -17.61921 47.81931 
-24.99612 17.49032 47.49751 
-0.08669 -28.00835 51.15355 
0.00000 0.00000 55.68770 
0.08669 28.00835 51.15355 
24.99612 -17.49032 47.49751 
25.14081 17.61921 47.81931 
-20.91239 -14.37920 36.59907 
-20.83806 14.34606 36.54393 
-0.06286 -25.45272 39.40286 
0.00000 0.00000 45.41860 
0.06286 25.45272 39.40286 
20.83806 -14.34606 36.54393 
20.91239 14.37920 36.59907 
-12.00083 -11.64818 26.85983 
-11.94702 11.64500 26.89810 
-0.05415 -17.67237 28.08730 
0.00000 0.00000 32.10006 
0.05415 17.67237 28.08730 
11.94702 -11.64500 26.89810 
12.00083 11.64818 26.85983 
0.00000 0.00000 -0.10000 
CELLS 233 698
2 0 1
2 0 2
2 0 3
2 1 3
2 1 4
2 2 3
2 2 5
2 3 4
2 3 5
2 3 6
2 4 6
2 5 6
2 7 8
2 7 9
2 7 10
2 8 10
2 8 11
2 9 10
2 9 12
2 10 11
2 10 12
2 10 13
2 11 13
2 12 13
2 14 15
2 14 16
2 14 17
2 15 17
2 15 18
2 16 17
2 16 19
2 17 18
2 17 19
2 17 20
2 18 20
2 19 20
2 21 22
2 21 23
2 21 24
2 22 24
2 22 25
2 23 24
2 23 26
2 24 25
2 24 26
2 24 27
2 25 27
2 26 27
2 28 29
2 28 30
2 28 31
2 29 31
2 29 32
2 30 31
2 30 33
2 31 32
2 31 33
2 31 34
2 32 34
2 33 34
2 0 1
2 0 2
2 0 3
2 0 7
2 0 8
2 0 9
2 0 10
2 1 3
2 1 4
2 1 7
2 1 8
2 1 10
2 1 11
2 2 3
2 2 5
2 2 7
2 2 9
2 2 10
2 2 12
2 3 4
2 3 5
2 3 6
2 3 7
2 3 8
2 3 9
2 3 10
2 3 11
2 3 12
2 3 13
2 4 6
2 4 8
2 4 10
2 4 11
2 4 13
2 5 6
2 5 9
2 5 10
2 5 12
2 5 13
2 6 10
2 6 11
2 6 12
2 6 13
2 7 8
2 7 9
2 7 10
2 7 14
2 7 15
2 7 16
2 7 17
2 8 10
2 8 11
2 8 14
2 8 15
2 8 17
2 8 18
2 9 10
2 9 12
2 9 14
2 9 16
2 9 17
2 9 19
2 10 11
2 10 12
2 10 13
2 10 14
2 10 15
2 10 16
2 10 17
2 10 18
2 10 19
2 10 20
2 11 13
2 11 15
2 11 17
2 11 18
2 11 20
2 12 13
2 12 16
2 12 17
2 12 19
2 12 20
2 13 17
2 13 18
2 13 19
2 13 20
2 14 15
2 14 16
2 14 17
2 14 21
2 14 22
2 14 23
2 14 24
2 15 17
2 15 18
2 15 21
2 15 22
2 15 24
2 15 25
2 16 17
2 16 19
2 16 21
2 16 23
2 16 24
2 16 26
2 17 18
2 17 19
2 17 20
2 17 21
2 17 22
2 17 23
2 17 24
2 17 25
2 17 26
2 17 27
2 18 20
2 18 22
2 18 24
2 18 25
2 18 27
2 19 20
2 19 23
2 19 24
2 19 26
2 19 27
2 20 24
2 20 25
2 20 26
2 20 27
2 21 22
2 21 23
2 21 24
2 21 28
2 21 29
2 21 30
2 21 31
2 22 24
2 22 25
2 22 28
2 22 29
2 22 31
2 22 32
2 23 24
2 23 26
2 23 28
2 23 30
2 23 31
2 23 33
2 24 25
2 24 26
2 24 27
2 24 28
2 24 29
2 24 30
2 24 31
2 24 32
2 24 33
2 24 34
2 25 27
2 25 29
2 25 31
2 25 32
2 25 34
2 26 27
2 26 30
2 26 31
2 26 33
2 26 34
2 27 31
2 27 32
2 27 33
2 27 34
1 35
CELL_TYPES 233
3
3
3
3
3
3
3
3
3
3
3
3
3
3
3
3
3
3
3
3
3
3
3
3
3
3
3
3
3
3
3
3
3
3
3
3
3
3
3
3
3
3
3
3
3
3
3
3
3
3
3
3
3
3
3
3
3
3
3
3
3
3
3
3
3
3
3
3
3
3
3
3
3
3
3
3
3
3
3
3
3
3
3
3
3
3
3
3
3
3
3
3
3
3
3
3
3
3
3
3
3
3
3
3
3
3
3
3
3
3
3
3
3
3
3
3
3
3
3
3
3
3
3
3
3
3
3
3
3
3
3
3
3
3
3
3
3
3
3
3
3
3
3
3
3
3
3
3
3
3
3
3
3
3
3
3
3
3
3
3
3
3
3
3
3
3
3
3
3
3
3
3
3
3
3
3
3
3
3
3
3
3
3
3
3
3
3
3
3
3
3
3
3
3
3
3
3
3
3
3
3
3
3
3
3
3
3
3
3
3
3
3
3
3
3
3
3
3
3
3
3
3
3
3
3
3
3
3
3
3
3
3
1
CELL_DATA 233
SCALARS Strain double 1
LOOKUP_TABLE default
-0.02975
-0.19895
0.14938
0.14585
-0.19690
0.02043
-0.19690
0.02043
0.14585
0.14938
-0.19895
-0.02975
0.00027
0.05418
0.32672
0.32044
0.05513
0.14385
0.05513
0.14385
0.32044
0.32672
0.05418
0.00027
0.02942
0.48755
0.41119
0.40906
0.48952
0.37994
0.48952
0.37994
0.40906
0.41119
0.48755
0.02942
-0.00760
0.22669
0.30028
0.29894
0.22865
0.01736
0.22865
0.01736
0.29894
0.30028
0.22669
-0.00760
-0.01009
0.52424
0.15539
0.15314
0.53191
-0.05255
0.53191
-0.05255
0.15314
0.15539
0.52424
-0.01009
-0.06898
0.08847
-0.00950
0.12519
-0.02938
0.03180
-0.00006
0.01201
0.08693
-0.03869
-0.00820
0.00611
0.02583
0.02117
0.08693
0.02016
0.28149
0.06162
0.01567
0.02117
0.01201
-0.00950
-0.07013
-0.06349
-0.06701
-0.01718
-0.06701
-0.06349
-0.07013
0.08847
0.01567
0.06162
0.28149
0.02016
-0.06898
0.02583
0.00611
-0.00820
-0.03869
-0.00006
0.03180
-0.02938
0.12519
-0.00651
-0.05483
-0.06526
0.21797
0.00813
-0.07577
-0.05139
-0.06438
-0.05336
-0.00331
0.14291
-0.05991
-0.08258
-0.04051
-0.05336
-0.04182
0.36188
0.00741
-0.03872
-0.04051
-0.06438
-0.06526
-0.08228
-0.08189
-0.08493
0.20500
-0.08493
-0.08189
-0.08228
-0.05483
-0.03872
0.00741
0.36188
-0.04182
-0.00651
-0.08258
-0.05991
0.14291
-0.00331
-0.05139
-0.07577
0.00813
0.21797
-0.01472
-0.13284
-0.11066
0.24205
0.00769
-0.09086
-0.09181
-0.11359
-0.12914
0.00063
0.21308
-0.09816
-0.09339
-0.09964
-0.12914
-0.04987
0.20254
-0.05786
-0.04608
-0.09964
-0.11359
-0.11066
-0.06342
-0.06433
-0.00425
0.02691
-0.00425
-0.06433
-0.06342
-0.13284
-0.04608
-0.05786
0.20254
-0.04987
-0.01472
-0.09339
-0.09816
0.21308
0.00063
-0.09181
-0.09086
0.00769
0.24205
-0.02478
-0.08731
-0.08785
0.34807
0.04126
-0.09730
-0.08040
-0.08980
-0.08473
0.03871
0.33937
-0.08356
-0.09669
0.00408
-0.08473
-0.12197
0.37323
0.04989
-0.12121
0.00408
-0.08980
-0.08785
-0.10866
-0.11065
-0.01859
0.33185
-0.01859
-0.11065
-0.10866
-0.08731
-0.12121
0.04989
0.37323
-0.12197
-0.02478
-0.09669
-0.08356
0.33937
0.03871
-0.08040
-0.09730
0.04126
0.34807
0.10000
