# vtk DataFile Version 3.0
Point representing Sub_cellular elem model
ASCII

DATASET UNSTRUCTURED_GRID
POINTS 36 float
-39.70928 -23.20743 64.03326 
-39.65761 23.18685 63.18880 
0.05411 -42.37648 69.08194 
-0.00000 0.00000 77.12516 
-0.05411 42.37648 69.08194 
39.65761 -23.18685 63.18880 
39.70928 23.20743 64.03326 
-32.59313 -20.81104 56.28614 
-32.53429 20.73962 56.07576 
-0.01970 -35.54981 60.34914 
-0.00000 0.00000 67.23488 
0.01970 35.54981 60.34914 
32.53429 -20.73962 56.07576 
32.59313 20.81104 56.28614 
-26.61204 -17.69483 47.25888 
-26.58474 17.67014 47.26933 
-0.02500 -28.86755 50.46303 
-0.00000 0.00000 56.06755 
0.02500 28.86755 50.46303 
26.58474 -17.67014 47.26933 
26.61204 17.69483 47.25888 
-22.14143 -14.54575 37.28697 
-22.13871 14.56035 37.36501 
-0.02058 -25.37337 39.96875 
-0.00000 0.00000 46.11045 
0.02058 25.37337 39.96875 
22.13871 -14.56035 37.36501 
22.14143 14.54575 37.28697 
-15.00490 -11.72677 28.31058 
-15.04434 11.77791 28.43109 
-0.01217 -19.07580 29.89101 
-0.00000 0.00000 34.68599 
0.01217 19.07580 29.89101 
15.04434 -11.77791 28.43109 
15.00490 11.72677 28.31058 
0.00000 0.00000 -0.10000 
CELLS 233 698
2 0 1
2 0 2
2 0 3
2 1 3
2 1 4
2 2 3
2 2 5
2 3 4
2 3 5
2 3 6
2 4 6
2 5 6
2 7 8
2 7 9
2 7 10
2 8 10
2 8 11
2 9 10
2 9 12
2 10 11
2 10 12
2 10 13
2 11 13
2 12 13
2 14 15
2 14 16
2 14 17
2 15 17
2 15 18
2 16 17
2 16 19
2 17 18
2 17 19
2 17 20
2 18 20
2 19 20
2 21 22
2 21 23
2 21 24
2 22 24
2 22 25
2 23 24
2 23 26
2 24 25
2 24 26
2 24 27
2 25 27
2 26 27
2 28 29
2 28 30
2 28 31
2 29 31
2 29 32
2 30 31
2 30 33
2 31 32
2 31 33
2 31 34
2 32 34
2 33 34
2 0 1
2 0 2
2 0 3
2 0 7
2 0 8
2 0 9
2 0 10
2 1 3
2 1 4
2 1 7
2 1 8
2 1 10
2 1 11
2 2 3
2 2 5
2 2 7
2 2 9
2 2 10
2 2 12
2 3 4
2 3 5
2 3 6
2 3 7
2 3 8
2 3 9
2 3 10
2 3 11
2 3 12
2 3 13
2 4 6
2 4 8
2 4 10
2 4 11
2 4 13
2 5 6
2 5 9
2 5 10
2 5 12
2 5 13
2 6 10
2 6 11
2 6 12
2 6 13
2 7 8
2 7 9
2 7 10
2 7 14
2 7 15
2 7 16
2 7 17
2 8 10
2 8 11
2 8 14
2 8 15
2 8 17
2 8 18
2 9 10
2 9 12
2 9 14
2 9 16
2 9 17
2 9 19
2 10 11
2 10 12
2 10 13
2 10 14
2 10 15
2 10 16
2 10 17
2 10 18
2 10 19
2 10 20
2 11 13
2 11 15
2 11 17
2 11 18
2 11 20
2 12 13
2 12 16
2 12 17
2 12 19
2 12 20
2 13 17
2 13 18
2 13 19
2 13 20
2 14 15
2 14 16
2 14 17
2 14 21
2 14 22
2 14 23
2 14 24
2 15 17
2 15 18
2 15 21
2 15 22
2 15 24
2 15 25
2 16 17
2 16 19
2 16 21
2 16 23
2 16 24
2 16 26
2 17 18
2 17 19
2 17 20
2 17 21
2 17 22
2 17 23
2 17 24
2 17 25
2 17 26
2 17 27
2 18 20
2 18 22
2 18 24
2 18 25
2 18 27
2 19 20
2 19 23
2 19 24
2 19 26
2 19 27
2 20 24
2 20 25
2 20 26
2 20 27
2 21 22
2 21 23
2 21 24
2 21 28
2 21 29
2 21 30
2 21 31
2 22 24
2 22 25
2 22 28
2 22 29
2 22 31
2 22 32
2 23 24
2 23 26
2 23 28
2 23 30
2 23 31
2 23 33
2 24 25
2 24 26
2 24 27
2 24 28
2 24 29
2 24 30
2 24 31
2 24 32
2 24 33
2 24 34
2 25 27
2 25 29
2 25 31
2 25 32
2 25 34
2 26 27
2 26 30
2 26 31
2 26 33
2 26 34
2 27 31
2 27 32
2 27 33
2 27 34
1 35
CELL_TYPES 233
3
3
3
3
3
3
3
3
3
3
3
3
3
3
3
3
3
3
3
3
3
3
3
3
3
3
3
3
3
3
3
3
3
3
3
3
3
3
3
3
3
3
3
3
3
3
3
3
3
3
3
3
3
3
3
3
3
3
3
3
3
3
3
3
3
3
3
3
3
3
3
3
3
3
3
3
3
3
3
3
3
3
3
3
3
3
3
3
3
3
3
3
3
3
3
3
3
3
3
3
3
3
3
3
3
3
3
3
3
3
3
3
3
3
3
3
3
3
3
3
3
3
3
3
3
3
3
3
3
3
3
3
3
3
3
3
3
3
3
3
3
3
3
3
3
3
3
3
3
3
3
3
3
3
3
3
3
3
3
3
3
3
3
3
3
3
3
3
3
3
3
3
3
3
3
3
3
3
3
3
3
3
3
3
3
3
3
3
3
3
3
3
3
3
3
3
3
3
3
3
3
3
3
3
3
3
3
3
3
3
3
3
3
3
3
3
3
3
3
3
3
3
3
3
3
3
3
3
3
3
3
3
1
CELL_DATA 233
SCALARS Strain double 1
LOOKUP_TABLE default
-0.03803
-0.13708
0.08843
0.09265
-0.13766
0.02476
-0.13766
0.02476
0.09265
0.08843
-0.13708
-0.03803
-0.00747
0.01870
0.17724
0.17646
0.01972
0.06510
0.01972
0.06510
0.17646
0.17724
0.01870
-0.00747
0.01556
0.23455
0.21735
0.21596
0.23579
0.21008
0.23579
0.21008
0.21596
0.21735
0.23455
0.01556
-0.01186
0.12947
0.16909
0.16829
0.13037
0.01911
0.13037
0.01911
0.16829
0.16909
0.12947
-0.01186
0.00987
0.21402
0.06366
0.06480
0.21575
-0.04431
0.21575
-0.04431
0.06480
0.06366
0.21402
0.00987
-0.03322
0.04681
-0.00367
0.07889
-0.01456
0.02124
0.00441
0.00020
0.04610
-0.01764
0.03598
0.00466
0.01948
0.01624
0.04610
0.00750
0.10847
0.03811
0.00680
0.01624
0.00020
-0.00367
-0.04301
-0.04251
-0.03794
-0.01097
-0.03794
-0.04251
-0.04301
0.04681
0.00680
0.03811
0.10847
0.00750
-0.03322
0.01948
0.00466
0.03598
-0.01764
0.00441
0.02124
-0.01456
0.07889
-0.00634
-0.02692
-0.03887
0.12683
0.00253
-0.04272
-0.03023
-0.03951
-0.02595
-0.00004
0.10622
-0.03246
-0.04348
-0.02077
-0.02595
-0.02724
0.19326
0.00662
-0.02673
-0.02077
-0.03951
-0.03887
-0.05490
-0.05581
-0.06143
0.11673
-0.06143
-0.05581
-0.05490
-0.02692
-0.02673
0.00662
0.19326
-0.02724
-0.00634
-0.04348
-0.03246
0.10622
-0.00004
-0.03023
-0.04272
0.00253
0.12683
-0.00760
-0.07922
-0.06977
0.13728
0.00375
-0.05680
-0.05687
-0.07083
-0.07829
0.00329
0.12930
-0.05793
-0.05607
-0.06685
-0.07829
-0.02920
0.10607
-0.03795
-0.02941
-0.06685
-0.07083
-0.06977
-0.04227
-0.04346
-0.00975
-0.00429
-0.00975
-0.04346
-0.04227
-0.07922
-0.02941
-0.03795
0.10607
-0.02920
-0.00760
-0.05607
-0.05793
0.12930
0.00329
-0.05687
-0.05680
0.00375
0.13728
-0.01186
-0.04889
-0.05204
0.18091
0.02275
-0.05762
-0.05027
-0.05269
-0.04814
0.02409
0.17426
-0.04979
-0.05597
0.00224
-0.04814
-0.07297
0.18836
0.02759
-0.07447
0.00224
-0.05269
-0.05204
-0.06997
-0.07126
-0.00723
0.14245
-0.00723
-0.07126
-0.06997
-0.04889
-0.07447
0.02759
0.18836
-0.07297
-0.01186
-0.05597
-0.04979
0.17426
0.02409
-0.05027
-0.05762
0.02275
0.18091
0.10000
