# vtk DataFile Version 3.0
Point representing Sub_cellular elem model
ASCII

DATASET UNSTRUCTURED_GRID
POINTS 36 float
-39.47252 -23.46177 63.71735 
-39.44522 23.44775 63.25301 
0.02899 -41.91915 67.91783 
-0.00000 0.00000 77.21679 
-0.02899 41.91915 67.91783 
39.44522 -23.44775 63.25301 
39.47252 23.46177 63.71735 
-33.01239 -20.83967 55.77678 
-32.98194 20.79627 55.67778 
-0.01411 -35.57604 59.38567 
-0.00000 0.00000 67.25716 
0.01411 35.57604 59.38567 
32.98194 -20.79627 55.67778 
33.01239 20.83967 55.77678 
-27.33388 -17.74156 47.03884 
-27.32270 17.72975 47.07195 
-0.01482 -29.34296 50.03927 
-0.00000 0.00000 56.48857 
0.01482 29.34296 50.03927 
27.32270 -17.72975 47.07195 
27.33388 17.74156 47.03884 
-22.70128 -14.59998 37.65820 
-22.70699 14.61449 37.73614 
-0.01208 -25.30011 40.17501 
-0.00000 0.00000 46.61883 
0.01208 25.30011 40.17501 
22.70699 -14.61449 37.73614 
22.70128 14.59998 37.65820 
-16.22555 -11.70467 29.00830 
-16.26628 11.75218 29.11851 
-0.00418 -19.34167 30.65835 
0.00000 0.00000 35.69603 
0.00418 19.34167 30.65835 
16.26628 -11.75218 29.11851 
16.22555 11.70467 29.00830 
0.00000 0.00000 -0.10000 
CELLS 233 698
2 0 1
2 0 2
2 0 3
2 1 3
2 1 4
2 2 3
2 2 5
2 3 4
2 3 5
2 3 6
2 4 6
2 5 6
2 7 8
2 7 9
2 7 10
2 8 10
2 8 11
2 9 10
2 9 12
2 10 11
2 10 12
2 10 13
2 11 13
2 12 13
2 14 15
2 14 16
2 14 17
2 15 17
2 15 18
2 16 17
2 16 19
2 17 18
2 17 19
2 17 20
2 18 20
2 19 20
2 21 22
2 21 23
2 21 24
2 22 24
2 22 25
2 23 24
2 23 26
2 24 25
2 24 26
2 24 27
2 25 27
2 26 27
2 28 29
2 28 30
2 28 31
2 29 31
2 29 32
2 30 31
2 30 33
2 31 32
2 31 33
2 31 34
2 32 34
2 33 34
2 0 1
2 0 2
2 0 3
2 0 7
2 0 8
2 0 9
2 0 10
2 1 3
2 1 4
2 1 7
2 1 8
2 1 10
2 1 11
2 2 3
2 2 5
2 2 7
2 2 9
2 2 10
2 2 12
2 3 4
2 3 5
2 3 6
2 3 7
2 3 8
2 3 9
2 3 10
2 3 11
2 3 12
2 3 13
2 4 6
2 4 8
2 4 10
2 4 11
2 4 13
2 5 6
2 5 9
2 5 10
2 5 12
2 5 13
2 6 10
2 6 11
2 6 12
2 6 13
2 7 8
2 7 9
2 7 10
2 7 14
2 7 15
2 7 16
2 7 17
2 8 10
2 8 11
2 8 14
2 8 15
2 8 17
2 8 18
2 9 10
2 9 12
2 9 14
2 9 16
2 9 17
2 9 19
2 10 11
2 10 12
2 10 13
2 10 14
2 10 15
2 10 16
2 10 17
2 10 18
2 10 19
2 10 20
2 11 13
2 11 15
2 11 17
2 11 18
2 11 20
2 12 13
2 12 16
2 12 17
2 12 19
2 12 20
2 13 17
2 13 18
2 13 19
2 13 20
2 14 15
2 14 16
2 14 17
2 14 21
2 14 22
2 14 23
2 14 24
2 15 17
2 15 18
2 15 21
2 15 22
2 15 24
2 15 25
2 16 17
2 16 19
2 16 21
2 16 23
2 16 24
2 16 26
2 17 18
2 17 19
2 17 20
2 17 21
2 17 22
2 17 23
2 17 24
2 17 25
2 17 26
2 17 27
2 18 20
2 18 22
2 18 24
2 18 25
2 18 27
2 19 20
2 19 23
2 19 24
2 19 26
2 19 27
2 20 24
2 20 25
2 20 26
2 20 27
2 21 22
2 21 23
2 21 24
2 21 28
2 21 29
2 21 30
2 21 31
2 22 24
2 22 25
2 22 28
2 22 29
2 22 31
2 22 32
2 23 24
2 23 26
2 23 28
2 23 30
2 23 31
2 23 33
2 24 25
2 24 26
2 24 27
2 24 28
2 24 29
2 24 30
2 24 31
2 24 32
2 24 33
2 24 34
2 25 27
2 25 29
2 25 31
2 25 32
2 25 34
2 26 27
2 26 30
2 26 31
2 26 33
2 26 34
2 27 31
2 27 32
2 27 33
2 27 34
1 35
CELL_TYPES 233
3
3
3
3
3
3
3
3
3
3
3
3
3
3
3
3
3
3
3
3
3
3
3
3
3
3
3
3
3
3
3
3
3
3
3
3
3
3
3
3
3
3
3
3
3
3
3
3
3
3
3
3
3
3
3
3
3
3
3
3
3
3
3
3
3
3
3
3
3
3
3
3
3
3
3
3
3
3
3
3
3
3
3
3
3
3
3
3
3
3
3
3
3
3
3
3
3
3
3
3
3
3
3
3
3
3
3
3
3
3
3
3
3
3
3
3
3
3
3
3
3
3
3
3
3
3
3
3
3
3
3
3
3
3
3
3
3
3
3
3
3
3
3
3
3
3
3
3
3
3
3
3
3
3
3
3
3
3
3
3
3
3
3
3
3
3
3
3
3
3
3
3
3
3
3
3
3
3
3
3
3
3
3
3
3
3
3
3
3
3
3
3
3
3
3
3
3
3
3
3
3
3
3
3
3
3
3
3
3
3
3
3
3
3
3
3
3
3
3
3
3
3
3
3
3
3
3
3
3
3
3
3
1
CELL_DATA 233
SCALARS Strain double 1
LOOKUP_TABLE default
-0.02593
-0.09932
0.05848
0.06078
-0.09981
0.01744
-0.09981
0.01744
0.06078
0.05848
-0.09932
-0.02593
-0.00509
0.01322
0.11294
0.11243
0.01393
0.04287
0.01393
0.04287
0.11243
0.11294
0.01322
-0.00509
0.01116
0.14594
0.13535
0.13453
0.14664
0.13037
0.14664
0.13037
0.13453
0.13535
0.14594
0.01116
-0.00818
0.08516
0.10905
0.10856
0.08573
0.01379
0.08573
0.01379
0.10856
0.10905
0.08516
-0.00818
0.00782
0.12873
0.04080
0.04194
0.12963
-0.02889
0.12963
-0.02889
0.04194
0.04080
0.12873
0.00782
-0.02260
0.03202
-0.00280
0.05670
-0.00990
0.01574
0.00332
-0.00064
0.03146
-0.01155
0.03047
0.00349
0.01474
0.01165
0.03146
0.00418
0.06318
0.02606
0.00370
0.01165
-0.00064
-0.00280
-0.02969
-0.02958
-0.02607
-0.00404
-0.02607
-0.02958
-0.02969
0.03202
0.00370
0.02606
0.06318
0.00418
-0.02260
0.01474
0.00349
0.03047
-0.01155
0.00332
0.01574
-0.00990
0.05670
-0.00431
-0.01783
-0.02686
0.08717
0.00176
-0.02856
-0.02082
-0.02731
-0.01714
0.00048
0.07466
-0.02200
-0.02874
-0.01466
-0.01714
-0.01932
0.12342
0.00345
-0.01911
-0.01466
-0.02731
-0.02686
-0.03830
-0.03907
-0.04356
0.07686
-0.04356
-0.03907
-0.03830
-0.01783
-0.01911
0.00345
0.12342
-0.01932
-0.00431
-0.02874
-0.02200
0.07466
0.00048
-0.02082
-0.02856
0.00176
0.08717
-0.00462
-0.05336
-0.04789
0.09236
0.00226
-0.03883
-0.03885
-0.04857
-0.05278
0.00240
0.08704
-0.03930
-0.03807
-0.04664
-0.05278
-0.01948
0.06605
-0.02649
-0.01989
-0.04664
-0.04857
-0.04789
-0.02939
-0.03040
-0.00797
-0.01303
-0.00797
-0.03040
-0.02939
-0.05336
-0.01989
-0.02649
0.06605
-0.01948
-0.00462
-0.03807
-0.03930
0.08704
0.00240
-0.03885
-0.03883
0.00226
0.09236
-0.00818
-0.03210
-0.03450
0.11866
0.01465
-0.03968
-0.03447
-0.03492
-0.03160
0.01598
0.11329
-0.03381
-0.03838
0.00231
-0.03160
-0.05140
0.12281
0.01871
-0.05275
0.00231
-0.03492
-0.03450
-0.04905
-0.05001
-0.00575
0.09228
-0.00575
-0.05001
-0.04905
-0.03210
-0.05275
0.01871
0.12281
-0.05140
-0.00818
-0.03838
-0.03381
0.11329
0.01598
-0.03447
-0.03968
0.01465
0.11866
0.10000
