# vtk DataFile Version 3.0
Point representing Sub_cellular elem model
ASCII

DATASET UNSTRUCTURED_GRID
POINTS 36 float
-39.92372 -22.54179 64.36641 
-39.93866 22.67027 62.63342 
0.16121 -42.77208 70.28261 
0.00000 0.00000 77.73034 
-0.16121 42.77208 70.28261 
39.93866 -22.67027 62.63342 
39.92372 22.54179 64.36641 
-32.06725 -20.82282 56.82930 
-31.96999 20.73787 56.28232 
-0.01013 -35.21101 61.35611 
0.00000 0.00000 67.61486 
0.01013 35.21101 61.35611 
31.96999 -20.73787 56.28232 
32.06725 20.82282 56.82930 
-25.95166 -17.64744 47.42482 
-25.88514 17.57980 47.30925 
-0.04589 -28.50813 50.76016 
0.00000 0.00000 56.04428 
0.04589 28.50813 50.76016 
25.88514 -17.57980 47.30925 
25.95166 17.64744 47.42482 
-21.51312 -14.41443 36.89556 
-21.48388 14.40057 36.91295 
-0.03505 -25.44519 39.82351 
0.00000 0.00000 46.16863 
0.03505 25.44519 39.82351 
21.48388 -14.40057 36.91295 
21.51312 14.41443 36.89556 
-12.99828 -11.62587 27.68384 
-12.99909 11.64196 27.75728 
-0.02788 -17.96559 29.13511 
0.00000 0.00000 33.27998 
0.02788 17.96559 29.13511 
12.99909 -11.64196 27.75728 
12.99828 11.62587 27.68384 
0.00000 0.00000 -0.10000 
CELLS 233 698
2 0 1
2 0 2
2 0 3
2 1 3
2 1 4
2 2 3
2 2 5
2 3 4
2 3 5
2 3 6
2 4 6
2 5 6
2 7 8
2 7 9
2 7 10
2 8 10
2 8 11
2 9 10
2 9 12
2 10 11
2 10 12
2 10 13
2 11 13
2 12 13
2 14 15
2 14 16
2 14 17
2 15 17
2 15 18
2 16 17
2 16 19
2 17 18
2 17 19
2 17 20
2 18 20
2 19 20
2 21 22
2 21 23
2 21 24
2 22 24
2 22 25
2 23 24
2 23 26
2 24 25
2 24 26
2 24 27
2 25 27
2 26 27
2 28 29
2 28 30
2 28 31
2 29 31
2 29 32
2 30 31
2 30 33
2 31 32
2 31 33
2 31 34
2 32 34
2 33 34
2 0 1
2 0 2
2 0 3
2 0 7
2 0 8
2 0 9
2 0 10
2 1 3
2 1 4
2 1 7
2 1 8
2 1 10
2 1 11
2 2 3
2 2 5
2 2 7
2 2 9
2 2 10
2 2 12
2 3 4
2 3 5
2 3 6
2 3 7
2 3 8
2 3 9
2 3 10
2 3 11
2 3 12
2 3 13
2 4 6
2 4 8
2 4 10
2 4 11
2 4 13
2 5 6
2 5 9
2 5 10
2 5 12
2 5 13
2 6 10
2 6 11
2 6 12
2 6 13
2 7 8
2 7 9
2 7 10
2 7 14
2 7 15
2 7 16
2 7 17
2 8 10
2 8 11
2 8 14
2 8 15
2 8 17
2 8 18
2 9 10
2 9 12
2 9 14
2 9 16
2 9 17
2 9 19
2 10 11
2 10 12
2 10 13
2 10 14
2 10 15
2 10 16
2 10 17
2 10 18
2 10 19
2 10 20
2 11 13
2 11 15
2 11 17
2 11 18
2 11 20
2 12 13
2 12 16
2 12 17
2 12 19
2 12 20
2 13 17
2 13 18
2 13 19
2 13 20
2 14 15
2 14 16
2 14 17
2 14 21
2 14 22
2 14 23
2 14 24
2 15 17
2 15 18
2 15 21
2 15 22
2 15 24
2 15 25
2 16 17
2 16 19
2 16 21
2 16 23
2 16 24
2 16 26
2 17 18
2 17 19
2 17 20
2 17 21
2 17 22
2 17 23
2 17 24
2 17 25
2 17 26
2 17 27
2 18 20
2 18 22
2 18 24
2 18 25
2 18 27
2 19 20
2 19 23
2 19 24
2 19 26
2 19 27
2 20 24
2 20 25
2 20 26
2 20 27
2 21 22
2 21 23
2 21 24
2 21 28
2 21 29
2 21 30
2 21 31
2 22 24
2 22 25
2 22 28
2 22 29
2 22 31
2 22 32
2 23 24
2 23 26
2 23 28
2 23 30
2 23 31
2 23 33
2 24 25
2 24 26
2 24 27
2 24 28
2 24 29
2 24 30
2 24 31
2 24 32
2 24 33
2 24 34
2 25 27
2 25 29
2 25 31
2 25 32
2 25 34
2 26 27
2 26 30
2 26 31
2 26 33
2 26 34
2 27 31
2 27 32
2 27 33
2 27 34
1 35
CELL_TYPES 233
3
3
3
3
3
3
3
3
3
3
3
3
3
3
3
3
3
3
3
3
3
3
3
3
3
3
3
3
3
3
3
3
3
3
3
3
3
3
3
3
3
3
3
3
3
3
3
3
3
3
3
3
3
3
3
3
3
3
3
3
3
3
3
3
3
3
3
3
3
3
3
3
3
3
3
3
3
3
3
3
3
3
3
3
3
3
3
3
3
3
3
3
3
3
3
3
3
3
3
3
3
3
3
3
3
3
3
3
3
3
3
3
3
3
3
3
3
3
3
3
3
3
3
3
3
3
3
3
3
3
3
3
3
3
3
3
3
3
3
3
3
3
3
3
3
3
3
3
3
3
3
3
3
3
3
3
3
3
3
3
3
3
3
3
3
3
3
3
3
3
3
3
3
3
3
3
3
3
3
3
3
3
3
3
3
3
3
3
3
3
3
3
3
3
3
3
3
3
3
3
3
3
3
3
3
3
3
3
3
3
3
3
3
3
3
3
3
3
3
3
3
3
3
3
3
3
3
3
3
3
3
3
1
CELL_DATA 233
SCALARS Strain double 1
LOOKUP_TABLE default
-0.01534
-0.16241
0.10430
0.09601
-0.16105
0.01701
-0.16105
0.01701
0.09601
0.10430
-0.16241
-0.01534
0.00124
0.04732
0.22599
0.22289
0.04749
0.10175
0.04749
0.10175
0.22289
0.22599
0.04732
0.00124
0.02329
0.33868
0.28803
0.28829
0.33803
0.26585
0.33803
0.26585
0.28829
0.28803
0.33868
0.02329
-0.00450
0.17184
0.21933
0.21920
0.17219
0.01587
0.17219
0.01587
0.21920
0.21933
0.17184
-0.00450
-0.01117
0.36916
0.13251
0.13254
0.37215
-0.03614
0.37215
-0.03614
0.13254
0.13251
0.36916
-0.01117
-0.05732
0.06703
-0.00501
0.10221
-0.02531
0.02752
0.00132
0.00720
0.06541
-0.02883
0.03716
0.00634
0.02523
0.02290
0.06541
0.00952
0.16996
0.04885
0.00711
0.02290
0.00720
-0.00501
-0.05071
-0.04737
-0.04962
0.01155
-0.04962
-0.04737
-0.05071
0.06703
0.00711
0.04885
0.16996
0.00952
-0.05732
0.02523
0.00634
0.03716
-0.02883
0.00132
0.02752
-0.02531
0.10221
-0.00602
-0.04192
-0.04996
0.16588
0.00422
-0.05864
-0.04097
-0.04926
-0.04086
-0.00064
0.12922
-0.04436
-0.06090
-0.03287
-0.04086
-0.03613
0.25381
0.00108
-0.03481
-0.03287
-0.04926
-0.04996
-0.06419
-0.06458
-0.06897
0.15706
-0.06897
-0.06458
-0.06419
-0.04192
-0.03481
0.00108
0.25381
-0.03613
-0.00602
-0.06090
-0.04436
0.12922
-0.00064
-0.04097
-0.05864
0.00422
0.16588
-0.01146
-0.10236
-0.08672
0.18751
0.00342
-0.07362
-0.07368
-0.08837
-0.10036
0.00066
0.17286
-0.07655
-0.07391
-0.07995
-0.10036
-0.03828
0.13574
-0.04844
-0.03681
-0.07995
-0.08837
-0.08672
-0.05014
-0.05121
-0.00559
-0.01244
-0.00559
-0.05121
-0.05014
-0.10236
-0.03681
-0.04844
0.13574
-0.03828
-0.01146
-0.07391
-0.07655
0.17286
0.00066
-0.07368
-0.07362
0.00342
0.18751
-0.02174
-0.06626
-0.06618
0.28506
0.03093
-0.08339
-0.06712
-0.06741
-0.06471
0.03070
0.27840
-0.06817
-0.08210
0.00678
-0.06471
-0.10778
0.30456
0.04170
-0.10811
0.00678
-0.06741
-0.06618
-0.09332
-0.09494
-0.01842
0.28886
-0.01842
-0.09494
-0.09332
-0.06626
-0.10811
0.04170
0.30456
-0.10778
-0.02174
-0.08210
-0.06817
0.27840
0.03070
-0.06712
-0.08339
0.03093
0.28506
0.10000
