# vtk DataFile Version 3.0
Point representing Sub_cellular elem model
ASCII

DATASET UNSTRUCTURED_GRID
POINTS 36 float
-39.72108 -22.83654 63.92621 
-39.77348 22.94517 62.94710 
0.09537 -42.33240 68.92180 
0.00000 0.00000 77.89968 
-0.09537 42.33240 68.92180 
39.77348 -22.94517 62.94710 
39.72108 22.83654 63.92621 
-32.49358 -20.83715 56.21463 
-32.44313 20.78567 55.91523 
-0.00973 -35.29219 60.37148 
0.00000 0.00000 67.67354 
0.00973 35.29219 60.37148 
32.44313 -20.78567 55.91523 
32.49358 20.83715 56.21463 
-26.60800 -17.68211 47.16419 
-26.57065 17.63690 47.11739 
-0.02964 -28.93566 50.45520 
0.00000 0.00000 56.45280 
0.02964 28.93566 50.45520 
26.57065 -17.63690 47.11739 
26.60800 17.68211 47.16419 
-22.00346 -14.45018 37.17630 
-21.99044 14.43989 37.20859 
-0.02209 -25.42150 40.15628 
0.00000 0.00000 46.79690 
0.02209 25.42150 40.15628 
21.99044 -14.43989 37.20859 
22.00346 14.45018 37.17630 
-13.83675 -11.60580 28.36704 
-13.85295 11.62106 28.43579 
-0.01712 -18.18201 29.96173 
0.00000 0.00000 34.24256 
0.01712 18.18201 29.96173 
13.85295 -11.62106 28.43579 
13.83675 11.60580 28.36704 
0.00000 0.00000 -0.10000 
CELLS 233 698
2 0 1
2 0 2
2 0 3
2 1 3
2 1 4
2 2 3
2 2 5
2 3 4
2 3 5
2 3 6
2 4 6
2 5 6
2 7 8
2 7 9
2 7 10
2 8 10
2 8 11
2 9 10
2 9 12
2 10 11
2 10 12
2 10 13
2 11 13
2 12 13
2 14 15
2 14 16
2 14 17
2 15 17
2 15 18
2 16 17
2 16 19
2 17 18
2 17 19
2 17 20
2 18 20
2 19 20
2 21 22
2 21 23
2 21 24
2 22 24
2 22 25
2 23 24
2 23 26
2 24 25
2 24 26
2 24 27
2 25 27
2 26 27
2 28 29
2 28 30
2 28 31
2 29 31
2 29 32
2 30 31
2 30 33
2 31 32
2 31 33
2 31 34
2 32 34
2 33 34
2 0 1
2 0 2
2 0 3
2 0 7
2 0 8
2 0 9
2 0 10
2 1 3
2 1 4
2 1 7
2 1 8
2 1 10
2 1 11
2 2 3
2 2 5
2 2 7
2 2 9
2 2 10
2 2 12
2 3 4
2 3 5
2 3 6
2 3 7
2 3 8
2 3 9
2 3 10
2 3 11
2 3 12
2 3 13
2 4 6
2 4 8
2 4 10
2 4 11
2 4 13
2 5 6
2 5 9
2 5 10
2 5 12
2 5 13
2 6 10
2 6 11
2 6 12
2 6 13
2 7 8
2 7 9
2 7 10
2 7 14
2 7 15
2 7 16
2 7 17
2 8 10
2 8 11
2 8 14
2 8 15
2 8 17
2 8 18
2 9 10
2 9 12
2 9 14
2 9 16
2 9 17
2 9 19
2 10 11
2 10 12
2 10 13
2 10 14
2 10 15
2 10 16
2 10 17
2 10 18
2 10 19
2 10 20
2 11 13
2 11 15
2 11 17
2 11 18
2 11 20
2 12 13
2 12 16
2 12 17
2 12 19
2 12 20
2 13 17
2 13 18
2 13 19
2 13 20
2 14 15
2 14 16
2 14 17
2 14 21
2 14 22
2 14 23
2 14 24
2 15 17
2 15 18
2 15 21
2 15 22
2 15 24
2 15 25
2 16 17
2 16 19
2 16 21
2 16 23
2 16 24
2 16 26
2 17 18
2 17 19
2 17 20
2 17 21
2 17 22
2 17 23
2 17 24
2 17 25
2 17 26
2 17 27
2 18 20
2 18 22
2 18 24
2 18 25
2 18 27
2 19 20
2 19 23
2 19 24
2 19 26
2 19 27
2 20 24
2 20 25
2 20 26
2 20 27
2 21 22
2 21 23
2 21 24
2 21 28
2 21 29
2 21 30
2 21 31
2 22 24
2 22 25
2 22 28
2 22 29
2 22 31
2 22 32
2 23 24
2 23 26
2 23 28
2 23 30
2 23 31
2 23 33
2 24 25
2 24 26
2 24 27
2 24 28
2 24 29
2 24 30
2 24 31
2 24 32
2 24 33
2 24 34
2 25 27
2 25 29
2 25 31
2 25 32
2 25 34
2 26 27
2 26 30
2 26 31
2 26 33
2 26 34
2 27 31
2 27 32
2 27 33
2 27 34
1 35
CELL_TYPES 233
3
3
3
3
3
3
3
3
3
3
3
3
3
3
3
3
3
3
3
3
3
3
3
3
3
3
3
3
3
3
3
3
3
3
3
3
3
3
3
3
3
3
3
3
3
3
3
3
3
3
3
3
3
3
3
3
3
3
3
3
3
3
3
3
3
3
3
3
3
3
3
3
3
3
3
3
3
3
3
3
3
3
3
3
3
3
3
3
3
3
3
3
3
3
3
3
3
3
3
3
3
3
3
3
3
3
3
3
3
3
3
3
3
3
3
3
3
3
3
3
3
3
3
3
3
3
3
3
3
3
3
3
3
3
3
3
3
3
3
3
3
3
3
3
3
3
3
3
3
3
3
3
3
3
3
3
3
3
3
3
3
3
3
3
3
3
3
3
3
3
3
3
3
3
3
3
3
3
3
3
3
3
3
3
3
3
3
3
3
3
3
3
3
3
3
3
3
3
3
3
3
3
3
3
3
3
3
3
3
3
3
3
3
3
3
3
3
3
3
3
3
3
3
3
3
3
3
3
3
3
3
3
1
CELL_DATA 233
SCALARS Strain double 1
LOOKUP_TABLE default
-0.00148
-0.12524
0.06802
0.05970
-0.12419
0.00935
-0.12419
0.00935
0.05970
0.06802
-0.12524
-0.00148
0.00308
0.04058
0.15340
0.15218
0.04019
0.06981
0.04019
0.06981
0.15218
0.15340
0.04058
0.00308
0.01794
0.23708
0.20277
0.20390
0.23573
0.18673
0.23573
0.18673
0.20390
0.20277
0.23708
0.01794
-0.00191
0.12863
0.15945
0.15982
0.12829
0.01423
0.12829
0.01423
0.15982
0.15945
0.12863
-0.00191
-0.01291
0.26999
0.11542
0.11592
0.27071
-0.02357
0.27071
-0.02357
0.11592
0.11542
0.26999
-0.01291
-0.04593
0.05113
-0.00199
0.07565
-0.02086
0.02229
0.00149
0.00613
0.04995
-0.02203
0.03848
0.00561
0.02142
0.01956
0.04995
0.00480
0.10763
0.03650
0.00308
0.01956
0.00613
-0.00199
-0.03546
-0.03358
-0.03559
0.02261
-0.03559
-0.03358
-0.03546
0.05113
0.00308
0.03650
0.10763
0.00480
-0.04593
0.02142
0.00561
0.03848
-0.02203
0.00149
0.02229
-0.02086
0.07565
-0.00460
-0.03195
-0.03708
0.12474
0.00249
-0.04555
-0.03198
-0.03662
-0.03117
0.00008
0.10364
-0.03367
-0.04636
-0.02539
-0.03117
-0.02939
0.17788
-0.00175
-0.02863
-0.02539
-0.03662
-0.03708
-0.04796
-0.04851
-0.05342
0.12207
-0.05342
-0.04851
-0.04796
-0.03195
-0.02863
-0.00175
0.17788
-0.02939
-0.00460
-0.04636
-0.03367
0.10364
0.00008
-0.03198
-0.04555
0.00249
0.12474
-0.00889
-0.07817
-0.06638
0.14632
0.00113
-0.05875
-0.05772
-0.06752
-0.07681
-0.00018
0.13746
-0.05939
-0.05852
-0.06227
-0.07681
-0.02856
0.08819
-0.03887
-0.02773
-0.06227
-0.06752
-0.06638
-0.03774
-0.03869
-0.00491
-0.03441
-0.00491
-0.03869
-0.03774
-0.07817
-0.02773
-0.03887
0.08819
-0.02856
-0.00889
-0.05852
-0.05939
0.13746
-0.00018
-0.05772
-0.05875
0.00113
0.14632
-0.01919
-0.04992
-0.04849
0.23447
0.02325
-0.07068
-0.05498
-0.04940
-0.04884
0.02356
0.22935
-0.05544
-0.06944
0.00871
-0.04884
-0.09526
0.25036
0.03484
-0.09558
0.00871
-0.04940
-0.04849
-0.07938
-0.08058
-0.01754
0.25543
-0.01754
-0.08058
-0.07938
-0.04992
-0.09558
0.03484
0.25036
-0.09526
-0.01919
-0.06944
-0.05544
0.22935
0.02356
-0.05498
-0.07068
0.02325
0.23447
0.10000
