# vtk DataFile Version 3.0
Point representing Sub_cellular elem model
ASCII

DATASET UNSTRUCTURED_GRID
POINTS 36 float
-39.66858 -23.25483 63.98081 
-39.62310 23.23542 63.22379 
0.04816 -42.29551 68.84039 
-0.00000 0.00000 77.13744 
-0.04816 42.29551 68.84039 
39.62310 -23.23542 63.22379 
39.66858 23.25483 63.98081 
-32.67388 -20.81560 56.18954 
-32.62164 20.75030 56.00579 
-0.01870 -35.55532 60.16109 
-0.00000 0.00000 67.23058 
0.01870 35.55532 60.16109 
32.62164 -20.75030 56.00579 
32.67388 20.81560 56.18954 
-26.74841 -17.70378 47.21564 
-26.72486 17.68215 47.23268 
-0.02280 -28.95681 50.38430 
-0.00000 0.00000 56.13944 
0.02280 28.95681 50.38430 
26.72486 -17.68215 47.23268 
26.74841 17.70378 47.21564 
-22.24784 -14.55566 37.35426 
-22.24727 14.57059 37.43372 
-0.01878 -25.36156 40.00866 
-0.00000 0.00000 46.20652 
0.01878 25.36156 40.00866 
22.24727 -14.57059 37.43372 
22.24784 14.55566 37.35426 
-15.23374 -11.72316 28.44242 
-15.27432 11.77429 28.56235 
-0.01033 -19.12788 30.03959 
-0.00000 0.00000 34.87937 
0.01033 19.12788 30.03959 
15.27432 -11.77429 28.56235 
15.23374 11.72316 28.44242 
0.00000 0.00000 -0.10000 
CELLS 233 698
2 0 1
2 0 2
2 0 3
2 1 3
2 1 4
2 2 3
2 2 5
2 3 4
2 3 5
2 3 6
2 4 6
2 5 6
2 7 8
2 7 9
2 7 10
2 8 10
2 8 11
2 9 10
2 9 12
2 10 11
2 10 12
2 10 13
2 11 13
2 12 13
2 14 15
2 14 16
2 14 17
2 15 17
2 15 18
2 16 17
2 16 19
2 17 18
2 17 19
2 17 20
2 18 20
2 19 20
2 21 22
2 21 23
2 21 24
2 22 24
2 22 25
2 23 24
2 23 26
2 24 25
2 24 26
2 24 27
2 25 27
2 26 27
2 28 29
2 28 30
2 28 31
2 29 31
2 29 32
2 30 31
2 30 33
2 31 32
2 31 33
2 31 34
2 32 34
2 33 34
2 0 1
2 0 2
2 0 3
2 0 7
2 0 8
2 0 9
2 0 10
2 1 3
2 1 4
2 1 7
2 1 8
2 1 10
2 1 11
2 2 3
2 2 5
2 2 7
2 2 9
2 2 10
2 2 12
2 3 4
2 3 5
2 3 6
2 3 7
2 3 8
2 3 9
2 3 10
2 3 11
2 3 12
2 3 13
2 4 6
2 4 8
2 4 10
2 4 11
2 4 13
2 5 6
2 5 9
2 5 10
2 5 12
2 5 13
2 6 10
2 6 11
2 6 12
2 6 13
2 7 8
2 7 9
2 7 10
2 7 14
2 7 15
2 7 16
2 7 17
2 8 10
2 8 11
2 8 14
2 8 15
2 8 17
2 8 18
2 9 10
2 9 12
2 9 14
2 9 16
2 9 17
2 9 19
2 10 11
2 10 12
2 10 13
2 10 14
2 10 15
2 10 16
2 10 17
2 10 18
2 10 19
2 10 20
2 11 13
2 11 15
2 11 17
2 11 18
2 11 20
2 12 13
2 12 16
2 12 17
2 12 19
2 12 20
2 13 17
2 13 18
2 13 19
2 13 20
2 14 15
2 14 16
2 14 17
2 14 21
2 14 22
2 14 23
2 14 24
2 15 17
2 15 18
2 15 21
2 15 22
2 15 24
2 15 25
2 16 17
2 16 19
2 16 21
2 16 23
2 16 24
2 16 26
2 17 18
2 17 19
2 17 20
2 17 21
2 17 22
2 17 23
2 17 24
2 17 25
2 17 26
2 17 27
2 18 20
2 18 22
2 18 24
2 18 25
2 18 27
2 19 20
2 19 23
2 19 24
2 19 26
2 19 27
2 20 24
2 20 25
2 20 26
2 20 27
2 21 22
2 21 23
2 21 24
2 21 28
2 21 29
2 21 30
2 21 31
2 22 24
2 22 25
2 22 28
2 22 29
2 22 31
2 22 32
2 23 24
2 23 26
2 23 28
2 23 30
2 23 31
2 23 33
2 24 25
2 24 26
2 24 27
2 24 28
2 24 29
2 24 30
2 24 31
2 24 32
2 24 33
2 24 34
2 25 27
2 25 29
2 25 31
2 25 32
2 25 34
2 26 27
2 26 30
2 26 31
2 26 33
2 26 34
2 27 31
2 27 32
2 27 33
2 27 34
1 35
CELL_TYPES 233
3
3
3
3
3
3
3
3
3
3
3
3
3
3
3
3
3
3
3
3
3
3
3
3
3
3
3
3
3
3
3
3
3
3
3
3
3
3
3
3
3
3
3
3
3
3
3
3
3
3
3
3
3
3
3
3
3
3
3
3
3
3
3
3
3
3
3
3
3
3
3
3
3
3
3
3
3
3
3
3
3
3
3
3
3
3
3
3
3
3
3
3
3
3
3
3
3
3
3
3
3
3
3
3
3
3
3
3
3
3
3
3
3
3
3
3
3
3
3
3
3
3
3
3
3
3
3
3
3
3
3
3
3
3
3
3
3
3
3
3
3
3
3
3
3
3
3
3
3
3
3
3
3
3
3
3
3
3
3
3
3
3
3
3
3
3
3
3
3
3
3
3
3
3
3
3
3
3
3
3
3
3
3
3
3
3
3
3
3
3
3
3
3
3
3
3
3
3
3
3
3
3
3
3
3
3
3
3
3
3
3
3
3
3
3
3
3
3
3
3
3
3
3
3
3
3
3
3
3
3
3
3
1
CELL_DATA 233
SCALARS Strain double 1
LOOKUP_TABLE default
-0.03579
-0.13040
0.08271
0.08649
-0.13097
0.02351
-0.13097
0.02351
0.08649
0.08271
-0.13040
-0.03579
-0.00704
0.01772
0.16458
0.16385
0.01868
0.06083
0.01868
0.06083
0.16385
0.16458
0.01772
-0.00704
0.01477
0.21675
0.20091
0.19964
0.21786
0.19406
0.21786
0.19406
0.19964
0.20091
0.21675
0.01477
-0.01117
0.12097
0.15736
0.15663
0.12179
0.01817
0.12179
0.01817
0.15663
0.15736
0.12097
-0.01117
0.00956
0.19641
0.05919
0.06036
0.19795
-0.04133
0.19795
-0.04133
0.06036
0.05919
0.19641
0.00956
-0.03126
0.04403
-0.00352
0.07508
-0.01370
0.02031
0.00424
-0.00004
0.04334
-0.01645
0.03583
0.00447
0.01873
0.01550
0.04334
0.00676
0.09893
0.03589
0.00611
0.01550
-0.00004
-0.00352
-0.04053
-0.04014
-0.03572
-0.00931
-0.03572
-0.04014
-0.04053
0.04403
0.00611
0.03589
0.09893
0.00676
-0.03126
0.01873
0.00447
0.03583
-0.01645
0.00424
0.02031
-0.01370
0.07508
-0.00598
-0.02519
-0.03665
0.11949
0.00237
-0.04001
-0.02848
-0.03725
-0.02427
0.00010
0.10069
-0.03046
-0.04062
-0.01966
-0.02427
-0.02585
0.17952
0.00593
-0.02541
-0.01966
-0.03725
-0.03665
-0.05186
-0.05276
-0.05821
0.10911
-0.05821
-0.05276
-0.05186
-0.02519
-0.02541
0.00593
0.17952
-0.02585
-0.00598
-0.04062
-0.03046
0.10069
0.00010
-0.02848
-0.04001
0.00237
0.11949
-0.00701
-0.07433
-0.06570
0.12877
0.00344
-0.05344
-0.05351
-0.06668
-0.07348
0.00314
0.12138
-0.05443
-0.05268
-0.06315
-0.07348
-0.02737
0.09808
-0.03588
-0.02765
-0.06315
-0.06668
-0.06570
-0.03992
-0.04108
-0.00951
-0.00671
-0.00951
-0.04108
-0.03992
-0.07433
-0.02765
-0.03588
0.09808
-0.02737
-0.00701
-0.05268
-0.05443
0.12138
0.00314
-0.05351
-0.05344
0.00344
0.12877
-0.01117
-0.04566
-0.04869
0.16895
0.02117
-0.05430
-0.04734
-0.04929
-0.04496
0.02254
0.16252
-0.04680
-0.05270
0.00231
-0.04496
-0.06907
0.17576
0.02591
-0.07057
0.00231
-0.04929
-0.04869
-0.06617
-0.06740
-0.00700
0.13271
-0.00700
-0.06740
-0.06617
-0.04566
-0.07057
0.02591
0.17576
-0.06907
-0.01117
-0.05270
-0.04680
0.16252
0.02254
-0.04734
-0.05430
0.02117
0.16895
0.10000
