# vtk DataFile Version 3.0
Point representing Sub_cellular elem model
ASCII

DATASET UNSTRUCTURED_GRID
POINTS 36 float
-39.53132 -23.40281 63.79815 
-39.49983 23.38719 63.26108 
0.03365 -42.02962 68.16315 
-0.00000 0.00000 77.18980 
-0.03365 42.02962 68.16315 
39.49983 -23.38719 63.26108 
39.53132 23.40281 63.79815 
-32.91787 -20.83236 55.89353 
-32.88205 20.78326 55.77426 
-0.01548 -35.57088 59.60089 
-0.00000 0.00000 67.24234 
0.01548 35.57088 59.60089 
32.88205 -20.78326 55.77426 
32.91787 20.83236 55.89353 
-27.16827 -17.73111 47.08750 
-27.15408 17.71694 47.11780 
-0.01691 -29.23350 50.13858 
-0.00000 0.00000 56.38324 
0.01691 29.23350 50.13858 
27.15408 -17.71694 47.11780 
27.16827 17.73111 47.08750 
-22.57358 -14.58715 37.56955 
-22.57796 14.60207 37.64921 
-0.01385 -25.31933 40.12890 
-0.00000 0.00000 46.50209 
0.01385 25.31933 40.12890 
22.57796 -14.60207 37.64921 
22.57358 14.58715 37.56955 
-15.94344 -11.71042 28.84792 
-15.98490 11.75959 28.96222 
-0.00567 -19.28303 30.48668 
0.00000 0.00000 35.46710 
0.00567 19.28303 30.48668 
15.98490 -11.75959 28.96222 
15.94344 11.71042 28.84792 
0.00000 0.00000 -0.10000 
CELLS 233 698
2 0 1
2 0 2
2 0 3
2 1 3
2 1 4
2 2 3
2 2 5
2 3 4
2 3 5
2 3 6
2 4 6
2 5 6
2 7 8
2 7 9
2 7 10
2 8 10
2 8 11
2 9 10
2 9 12
2 10 11
2 10 12
2 10 13
2 11 13
2 12 13
2 14 15
2 14 16
2 14 17
2 15 17
2 15 18
2 16 17
2 16 19
2 17 18
2 17 19
2 17 20
2 18 20
2 19 20
2 21 22
2 21 23
2 21 24
2 22 24
2 22 25
2 23 24
2 23 26
2 24 25
2 24 26
2 24 27
2 25 27
2 26 27
2 28 29
2 28 30
2 28 31
2 29 31
2 29 32
2 30 31
2 30 33
2 31 32
2 31 33
2 31 34
2 32 34
2 33 34
2 0 1
2 0 2
2 0 3
2 0 7
2 0 8
2 0 9
2 0 10
2 1 3
2 1 4
2 1 7
2 1 8
2 1 10
2 1 11
2 2 3
2 2 5
2 2 7
2 2 9
2 2 10
2 2 12
2 3 4
2 3 5
2 3 6
2 3 7
2 3 8
2 3 9
2 3 10
2 3 11
2 3 12
2 3 13
2 4 6
2 4 8
2 4 10
2 4 11
2 4 13
2 5 6
2 5 9
2 5 10
2 5 12
2 5 13
2 6 10
2 6 11
2 6 12
2 6 13
2 7 8
2 7 9
2 7 10
2 7 14
2 7 15
2 7 16
2 7 17
2 8 10
2 8 11
2 8 14
2 8 15
2 8 17
2 8 18
2 9 10
2 9 12
2 9 14
2 9 16
2 9 17
2 9 19
2 10 11
2 10 12
2 10 13
2 10 14
2 10 15
2 10 16
2 10 17
2 10 18
2 10 19
2 10 20
2 11 13
2 11 15
2 11 17
2 11 18
2 11 20
2 12 13
2 12 16
2 12 17
2 12 19
2 12 20
2 13 17
2 13 18
2 13 19
2 13 20
2 14 15
2 14 16
2 14 17
2 14 21
2 14 22
2 14 23
2 14 24
2 15 17
2 15 18
2 15 21
2 15 22
2 15 24
2 15 25
2 16 17
2 16 19
2 16 21
2 16 23
2 16 24
2 16 26
2 17 18
2 17 19
2 17 20
2 17 21
2 17 22
2 17 23
2 17 24
2 17 25
2 17 26
2 17 27
2 18 20
2 18 22
2 18 24
2 18 25
2 18 27
2 19 20
2 19 23
2 19 24
2 19 26
2 19 27
2 20 24
2 20 25
2 20 26
2 20 27
2 21 22
2 21 23
2 21 24
2 21 28
2 21 29
2 21 30
2 21 31
2 22 24
2 22 25
2 22 28
2 22 29
2 22 31
2 22 32
2 23 24
2 23 26
2 23 28
2 23 30
2 23 31
2 23 33
2 24 25
2 24 26
2 24 27
2 24 28
2 24 29
2 24 30
2 24 31
2 24 32
2 24 33
2 24 34
2 25 27
2 25 29
2 25 31
2 25 32
2 25 34
2 26 27
2 26 30
2 26 31
2 26 33
2 26 34
2 27 31
2 27 32
2 27 33
2 27 34
1 35
CELL_TYPES 233
3
3
3
3
3
3
3
3
3
3
3
3
3
3
3
3
3
3
3
3
3
3
3
3
3
3
3
3
3
3
3
3
3
3
3
3
3
3
3
3
3
3
3
3
3
3
3
3
3
3
3
3
3
3
3
3
3
3
3
3
3
3
3
3
3
3
3
3
3
3
3
3
3
3
3
3
3
3
3
3
3
3
3
3
3
3
3
3
3
3
3
3
3
3
3
3
3
3
3
3
3
3
3
3
3
3
3
3
3
3
3
3
3
3
3
3
3
3
3
3
3
3
3
3
3
3
3
3
3
3
3
3
3
3
3
3
3
3
3
3
3
3
3
3
3
3
3
3
3
3
3
3
3
3
3
3
3
3
3
3
3
3
3
3
3
3
3
3
3
3
3
3
3
3
3
3
3
3
3
3
3
3
3
3
3
3
3
3
3
3
3
3
3
3
3
3
3
3
3
3
3
3
3
3
3
3
3
3
3
3
3
3
3
3
3
3
3
3
3
3
3
3
3
3
3
3
3
3
3
3
3
3
1
CELL_DATA 233
SCALARS Strain double 1
LOOKUP_TABLE default
-0.02875
-0.10851
0.06527
0.06793
-0.10903
0.01924
-0.10903
0.01924
0.06793
0.06527
-0.10851
-0.02875
-0.00565
0.01453
0.12711
0.12653
0.01532
0.04789
0.01532
0.04789
0.12653
0.12711
0.01453
-0.00565
0.01222
0.16508
0.15309
0.15216
0.16588
0.14758
0.16588
0.14758
0.15216
0.15309
0.16508
0.01222
-0.00903
0.09516
0.12238
0.12183
0.09579
0.01509
0.09579
0.01509
0.12183
0.12238
0.09516
-0.00903
0.00838
0.14666
0.04586
0.04703
0.14772
-0.03234
0.14772
-0.03234
0.04703
0.04586
0.14666
0.00838
-0.02507
0.03543
-0.00302
0.06220
-0.01098
0.01713
0.00361
-0.00053
0.03483
-0.01291
0.03260
0.00379
0.01598
0.01282
0.03483
0.00483
0.07252
0.02888
0.00431
0.01282
-0.00053
-0.00302
-0.03279
-0.03262
-0.02882
-0.00525
-0.02882
-0.03262
-0.03279
0.03543
0.00431
0.02888
0.07252
0.00483
-0.02507
0.01598
0.00379
0.03260
-0.01291
0.00361
0.01713
-0.01098
0.06220
-0.00479
-0.01990
-0.02967
0.09645
0.00193
-0.03178
-0.02301
-0.03017
-0.01914
0.00041
0.08234
-0.02439
-0.03205
-0.01612
-0.01914
-0.02124
0.13885
0.00408
-0.02098
-0.01612
-0.03017
-0.02967
-0.04222
-0.04304
-0.04784
0.08591
-0.04784
-0.04304
-0.04222
-0.01990
-0.02098
0.00408
0.13885
-0.02124
-0.00479
-0.03205
-0.02439
0.08234
0.00041
-0.02301
-0.03178
0.00193
0.09645
-0.00527
-0.05929
-0.05298
0.10266
0.00257
-0.04299
-0.04303
-0.05374
-0.05864
0.00262
0.09680
-0.04360
-0.04222
-0.05141
-0.05864
-0.02171
0.07477
-0.02922
-0.02210
-0.05141
-0.05374
-0.05298
-0.03243
-0.03349
-0.00849
-0.01189
-0.00849
-0.03349
-0.03243
-0.05929
-0.02210
-0.02922
0.07477
-0.02171
-0.00527
-0.04222
-0.04360
0.09680
0.00262
-0.04303
-0.04299
0.00257
0.10266
-0.00903
-0.03588
-0.03848
0.13271
0.01646
-0.04388
-0.03816
-0.03895
-0.03532
0.01782
0.12700
-0.03751
-0.04248
0.00236
-0.03532
-0.05655
0.13758
0.02075
-0.05796
0.00236
-0.03895
-0.03848
-0.05402
-0.05506
-0.00615
0.10350
-0.00615
-0.05506
-0.05402
-0.03588
-0.05796
0.02075
0.13758
-0.05655
-0.00903
-0.04248
-0.03751
0.12700
0.01782
-0.03816
-0.04388
0.01646
0.13271
0.10000
