# vtk DataFile Version 3.0
Point representing Sub_cellular elem model
ASCII

DATASET UNSTRUCTURED_GRID
POINTS 36 float
-39.76705 -23.13643 64.10537 
-39.70379 23.11417 63.10903 
0.06474 -42.49294 69.47214 
-0.00000 0.00000 77.10995 
-0.06474 42.49294 69.47214 
39.70379 -23.11417 63.10903 
39.76705 23.13643 64.10537 
-32.46923 -20.80526 56.43306 
-32.39887 20.72357 56.17559 
-0.02113 -35.54136 60.64051 
-0.00000 0.00000 67.24876 
0.02113 35.54136 60.64051 
32.39887 -20.72357 56.17559 
32.46923 20.80526 56.43306 
-26.40546 -17.68138 47.32620 
-26.37168 17.65132 47.32406 
-0.02868 -28.73323 50.58169 
-0.00000 0.00000 55.96563 
0.02868 28.73323 50.58169 
26.37168 -17.65132 47.32406 
26.40546 17.68138 47.32620 
-21.97974 -14.53107 37.18778 
-21.97319 14.54478 37.26231 
-0.02353 -25.38956 39.90758 
-0.00000 0.00000 45.96527 
0.02353 25.38956 39.90758 
21.97319 -14.54478 37.26231 
21.97974 14.53107 37.18778 
-14.65987 -11.73175 28.11122 
-14.69672 11.78229 28.23146 
-0.01530 -18.99520 29.66323 
-0.00000 0.00000 34.39136 
0.01530 18.99520 29.66323 
14.69672 -11.78229 28.23146 
14.65987 11.73175 28.11122 
0.00000 0.00000 -0.10000 
CELLS 233 698
2 0 1
2 0 2
2 0 3
2 1 3
2 1 4
2 2 3
2 2 5
2 3 4
2 3 5
2 3 6
2 4 6
2 5 6
2 7 8
2 7 9
2 7 10
2 8 10
2 8 11
2 9 10
2 9 12
2 10 11
2 10 12
2 10 13
2 11 13
2 12 13
2 14 15
2 14 16
2 14 17
2 15 17
2 15 18
2 16 17
2 16 19
2 17 18
2 17 19
2 17 20
2 18 20
2 19 20
2 21 22
2 21 23
2 21 24
2 22 24
2 22 25
2 23 24
2 23 26
2 24 25
2 24 26
2 24 27
2 25 27
2 26 27
2 28 29
2 28 30
2 28 31
2 29 31
2 29 32
2 30 31
2 30 33
2 31 32
2 31 33
2 31 34
2 32 34
2 33 34
2 0 1
2 0 2
2 0 3
2 0 7
2 0 8
2 0 9
2 0 10
2 1 3
2 1 4
2 1 7
2 1 8
2 1 10
2 1 11
2 2 3
2 2 5
2 2 7
2 2 9
2 2 10
2 2 12
2 3 4
2 3 5
2 3 6
2 3 7
2 3 8
2 3 9
2 3 10
2 3 11
2 3 12
2 3 13
2 4 6
2 4 8
2 4 10
2 4 11
2 4 13
2 5 6
2 5 9
2 5 10
2 5 12
2 5 13
2 6 10
2 6 11
2 6 12
2 6 13
2 7 8
2 7 9
2 7 10
2 7 14
2 7 15
2 7 16
2 7 17
2 8 10
2 8 11
2 8 14
2 8 15
2 8 17
2 8 18
2 9 10
2 9 12
2 9 14
2 9 16
2 9 17
2 9 19
2 10 11
2 10 12
2 10 13
2 10 14
2 10 15
2 10 16
2 10 17
2 10 18
2 10 19
2 10 20
2 11 13
2 11 15
2 11 17
2 11 18
2 11 20
2 12 13
2 12 16
2 12 17
2 12 19
2 12 20
2 13 17
2 13 18
2 13 19
2 13 20
2 14 15
2 14 16
2 14 17
2 14 21
2 14 22
2 14 23
2 14 24
2 15 17
2 15 18
2 15 21
2 15 22
2 15 24
2 15 25
2 16 17
2 16 19
2 16 21
2 16 23
2 16 24
2 16 26
2 17 18
2 17 19
2 17 20
2 17 21
2 17 22
2 17 23
2 17 24
2 17 25
2 17 26
2 17 27
2 18 20
2 18 22
2 18 24
2 18 25
2 18 27
2 19 20
2 19 23
2 19 24
2 19 26
2 19 27
2 20 24
2 20 25
2 20 26
2 20 27
2 21 22
2 21 23
2 21 24
2 21 28
2 21 29
2 21 30
2 21 31
2 22 24
2 22 25
2 22 28
2 22 29
2 22 31
2 22 32
2 23 24
2 23 26
2 23 28
2 23 30
2 23 31
2 23 33
2 24 25
2 24 26
2 24 27
2 24 28
2 24 29
2 24 30
2 24 31
2 24 32
2 24 33
2 24 34
2 25 27
2 25 29
2 25 31
2 25 32
2 25 34
2 26 27
2 26 30
2 26 31
2 26 33
2 26 34
2 27 31
2 27 32
2 27 33
2 27 34
1 35
CELL_TYPES 233
3
3
3
3
3
3
3
3
3
3
3
3
3
3
3
3
3
3
3
3
3
3
3
3
3
3
3
3
3
3
3
3
3
3
3
3
3
3
3
3
3
3
3
3
3
3
3
3
3
3
3
3
3
3
3
3
3
3
3
3
3
3
3
3
3
3
3
3
3
3
3
3
3
3
3
3
3
3
3
3
3
3
3
3
3
3
3
3
3
3
3
3
3
3
3
3
3
3
3
3
3
3
3
3
3
3
3
3
3
3
3
3
3
3
3
3
3
3
3
3
3
3
3
3
3
3
3
3
3
3
3
3
3
3
3
3
3
3
3
3
3
3
3
3
3
3
3
3
3
3
3
3
3
3
3
3
3
3
3
3
3
3
3
3
3
3
3
3
3
3
3
3
3
3
3
3
3
3
3
3
3
3
3
3
3
3
3
3
3
3
3
3
3
3
3
3
3
3
3
3
3
3
3
3
3
3
3
3
3
3
3
3
3
3
3
3
3
3
3
3
3
3
3
3
3
3
3
3
3
3
3
3
1
CELL_DATA 233
SCALARS Strain double 1
LOOKUP_TABLE default
-0.04136
-0.14680
0.09713
0.10212
-0.14739
0.02649
-0.14739
0.02649
0.10212
0.09713
-0.14680
-0.04136
-0.00809
0.02015
0.19686
0.19600
0.02126
0.07161
0.02126
0.07161
0.19600
0.19686
0.02015
-0.00809
0.01672
0.26252
0.24317
0.24156
0.26399
0.23524
0.26399
0.23524
0.24156
0.24317
0.26252
0.01672
-0.01288
0.14246
0.18720
0.18628
0.14348
0.02047
0.14348
0.02047
0.18628
0.18720
0.14246
-0.01288
0.01028
0.24221
0.07058
0.07164
0.24425
-0.04889
0.24425
-0.04889
0.07164
0.07058
0.24221
0.01028
-0.03615
0.05104
-0.00388
0.08423
-0.01583
0.02254
0.00463
0.00065
0.05031
-0.01946
0.03513
0.00491
0.02048
0.01720
0.05031
0.00875
0.12397
0.04140
0.00796
0.01720
0.00065
-0.00388
-0.04675
-0.04606
-0.04131
-0.01388
-0.04131
-0.04606
-0.04675
0.05104
0.00796
0.04140
0.12397
0.00875
-0.03615
0.02048
0.00491
0.03513
-0.01946
0.00463
0.02254
-0.01583
0.08423
-0.00685
-0.02957
-0.04221
0.13781
0.00280
-0.04687
-0.03287
-0.04290
-0.02851
-0.00031
0.11407
-0.03552
-0.04790
-0.02239
-0.02851
-0.02924
0.21462
0.00777
-0.02860
-0.02239
-0.04290
-0.04221
-0.05942
-0.06035
-0.06617
0.12831
-0.06617
-0.06035
-0.05942
-0.02957
-0.02860
0.00777
0.21462
-0.02924
-0.00685
-0.04790
-0.03552
0.11407
-0.00031
-0.03287
-0.04687
0.00280
0.13781
-0.00851
-0.08663
-0.07587
0.15021
0.00425
-0.06185
-0.06191
-0.07707
-0.08557
0.00350
0.14121
-0.06323
-0.06119
-0.07235
-0.08557
-0.03195
0.11855
-0.04099
-0.03203
-0.07235
-0.07707
-0.07587
-0.04576
-0.04698
-0.01002
0.00004
-0.01002
-0.04698
-0.04576
-0.08663
-0.03203
-0.04099
0.11855
-0.03195
-0.00851
-0.06119
-0.06323
0.14121
0.00350
-0.06191
-0.06185
0.00425
0.15021
-0.01288
-0.05385
-0.05714
0.19918
0.02519
-0.06259
-0.05464
-0.05787
-0.05301
0.02645
0.19221
-0.05428
-0.06087
0.00209
-0.05301
-0.07872
0.20762
0.03015
-0.08021
0.00209
-0.05787
-0.05714
-0.07559
-0.07697
-0.00754
0.15739
-0.00754
-0.07697
-0.07559
-0.05385
-0.08021
0.03015
0.20762
-0.07872
-0.01288
-0.06087
-0.05428
0.19221
0.02645
-0.05464
-0.06259
0.02519
0.19918
0.10000
