# vtk DataFile Version 3.0
Point representing Sub_cellular elem model
ASCII

DATASET UNSTRUCTURED_GRID
POINTS 36 float
-39.54532 -23.04519 63.57822 
-39.60418 23.13935 62.94553 
0.06467 -41.97965 68.16755 
-0.00000 0.00000 78.06271 
-0.06467 41.97965 68.16755 
39.60418 -23.13935 62.94553 
39.54532 23.04519 63.57822 
-32.77591 -20.85387 55.79778 
-32.74394 20.81771 55.60737 
-0.00828 -35.34853 59.73368 
-0.00000 0.00000 67.79041 
0.00828 35.34853 59.73368 
32.74394 -20.81771 55.60737 
32.77591 20.85387 55.79778 
-27.06158 -17.70619 46.99765 
-27.03640 17.67003 46.97270 
-0.02180 -29.23717 50.24216 
0.00000 0.00000 56.79028 
0.02180 29.23717 50.24216 
27.03640 -17.67003 46.97270 
27.06158 17.70619 46.99765 
-22.34294 -14.47712 37.38448 
-22.33503 14.46581 37.41213 
-0.01531 -25.39396 40.38504 
0.00000 0.00000 47.23501 
0.01531 25.39396 40.38504 
22.33503 -14.46581 37.41213 
22.34294 14.47712 37.38448 
-14.42908 -11.59136 28.84224 
-14.44626 11.59969 28.89428 
-0.01316 -18.32468 30.52185 
0.00000 0.00000 34.89967 
0.01316 18.32468 30.52185 
14.44626 -11.59969 28.89428 
14.42908 11.59136 28.84224 
0.00000 0.00000 -0.10000 
CELLS 233 698
2 0 1
2 0 2
2 0 3
2 1 3
2 1 4
2 2 3
2 2 5
2 3 4
2 3 5
2 3 6
2 4 6
2 5 6
2 7 8
2 7 9
2 7 10
2 8 10
2 8 11
2 9 10
2 9 12
2 10 11
2 10 12
2 10 13
2 11 13
2 12 13
2 14 15
2 14 16
2 14 17
2 15 17
2 15 18
2 16 17
2 16 19
2 17 18
2 17 19
2 17 20
2 18 20
2 19 20
2 21 22
2 21 23
2 21 24
2 22 24
2 22 25
2 23 24
2 23 26
2 24 25
2 24 26
2 24 27
2 25 27
2 26 27
2 28 29
2 28 30
2 28 31
2 29 31
2 29 32
2 30 31
2 30 33
2 31 32
2 31 33
2 31 34
2 32 34
2 33 34
2 0 1
2 0 2
2 0 3
2 0 7
2 0 8
2 0 9
2 0 10
2 1 3
2 1 4
2 1 7
2 1 8
2 1 10
2 1 11
2 2 3
2 2 5
2 2 7
2 2 9
2 2 10
2 2 12
2 3 4
2 3 5
2 3 6
2 3 7
2 3 8
2 3 9
2 3 10
2 3 11
2 3 12
2 3 13
2 4 6
2 4 8
2 4 10
2 4 11
2 4 13
2 5 6
2 5 9
2 5 10
2 5 12
2 5 13
2 6 10
2 6 11
2 6 12
2 6 13
2 7 8
2 7 9
2 7 10
2 7 14
2 7 15
2 7 16
2 7 17
2 8 10
2 8 11
2 8 14
2 8 15
2 8 17
2 8 18
2 9 10
2 9 12
2 9 14
2 9 16
2 9 17
2 9 19
2 10 11
2 10 12
2 10 13
2 10 14
2 10 15
2 10 16
2 10 17
2 10 18
2 10 19
2 10 20
2 11 13
2 11 15
2 11 17
2 11 18
2 11 20
2 12 13
2 12 16
2 12 17
2 12 19
2 12 20
2 13 17
2 13 18
2 13 19
2 13 20
2 14 15
2 14 16
2 14 17
2 14 21
2 14 22
2 14 23
2 14 24
2 15 17
2 15 18
2 15 21
2 15 22
2 15 24
2 15 25
2 16 17
2 16 19
2 16 21
2 16 23
2 16 24
2 16 26
2 17 18
2 17 19
2 17 20
2 17 21
2 17 22
2 17 23
2 17 24
2 17 25
2 17 26
2 17 27
2 18 20
2 18 22
2 18 24
2 18 25
2 18 27
2 19 20
2 19 23
2 19 24
2 19 26
2 19 27
2 20 24
2 20 25
2 20 26
2 20 27
2 21 22
2 21 23
2 21 24
2 21 28
2 21 29
2 21 30
2 21 31
2 22 24
2 22 25
2 22 28
2 22 29
2 22 31
2 22 32
2 23 24
2 23 26
2 23 28
2 23 30
2 23 31
2 23 33
2 24 25
2 24 26
2 24 27
2 24 28
2 24 29
2 24 30
2 24 31
2 24 32
2 24 33
2 24 34
2 25 27
2 25 29
2 25 31
2 25 32
2 25 34
2 26 27
2 26 30
2 26 31
2 26 33
2 26 34
2 27 31
2 27 32
2 27 33
2 27 34
1 35
CELL_TYPES 233
3
3
3
3
3
3
3
3
3
3
3
3
3
3
3
3
3
3
3
3
3
3
3
3
3
3
3
3
3
3
3
3
3
3
3
3
3
3
3
3
3
3
3
3
3
3
3
3
3
3
3
3
3
3
3
3
3
3
3
3
3
3
3
3
3
3
3
3
3
3
3
3
3
3
3
3
3
3
3
3
3
3
3
3
3
3
3
3
3
3
3
3
3
3
3
3
3
3
3
3
3
3
3
3
3
3
3
3
3
3
3
3
3
3
3
3
3
3
3
3
3
3
3
3
3
3
3
3
3
3
3
3
3
3
3
3
3
3
3
3
3
3
3
3
3
3
3
3
3
3
3
3
3
3
3
3
3
3
3
3
3
3
3
3
3
3
3
3
3
3
3
3
3
3
3
3
3
3
3
3
3
3
3
3
3
3
3
3
3
3
3
3
3
3
3
3
3
3
3
3
3
3
3
3
3
3
3
3
3
3
3
3
3
3
3
3
3
3
3
3
3
3
3
3
3
3
3
3
3
3
3
3
1
CELL_DATA 233
SCALARS Strain double 1
LOOKUP_TABLE default
0.00859
-0.09544
0.04360
0.03595
-0.09460
0.00292
-0.09460
0.00292
0.03595
0.04360
-0.09544
0.00859
0.00452
0.03543
0.10756
0.10741
0.03467
0.04877
0.03467
0.04877
0.10741
0.10756
0.03543
0.00452
0.01390
0.17501
0.15014
0.15165
0.17344
0.13779
0.17344
0.13779
0.15165
0.15014
0.17501
0.01390
-0.00008
0.09957
0.12065
0.12127
0.09886
0.01272
0.09886
0.01272
0.12127
0.12065
0.09957
-0.00008
-0.01444
0.21155
0.10404
0.10448
0.21121
-0.01518
0.21121
-0.01518
0.10448
0.10404
0.21155
-0.01444
-0.03766
0.04001
0.00023
0.05433
-0.01755
0.01776
0.00133
0.00623
0.03923
-0.01770
0.03102
0.00482
0.01752
0.01617
0.03923
0.00249
0.07288
0.02746
0.00120
0.01617
0.00623
0.00023
-0.02454
-0.02335
-0.02549
0.02723
-0.02549
-0.02335
-0.02454
0.04001
0.00120
0.02746
0.07288
0.00249
-0.03766
0.01752
0.00482
0.03102
-0.01770
0.00133
0.01776
-0.01755
0.05433
-0.00345
-0.02522
-0.02773
0.09546
0.00150
-0.03677
-0.02549
-0.02743
-0.02463
0.00011
0.08185
-0.02652
-0.03706
-0.01956
-0.02463
-0.02398
0.12888
-0.00282
-0.02340
-0.01956
-0.02743
-0.02773
-0.03585
-0.03638
-0.04138
0.10001
-0.04138
-0.03638
-0.03585
-0.02522
-0.02340
-0.00282
0.12888
-0.02398
-0.00345
-0.03706
-0.02652
0.08185
0.00011
-0.02549
-0.03677
0.00150
0.09546
-0.00728
-0.06152
-0.05181
0.11850
-0.00018
-0.04813
-0.04620
-0.05270
-0.06045
-0.00099
0.11254
-0.04740
-0.04784
-0.04924
-0.06045
-0.02165
0.05798
-0.03144
-0.02097
-0.04924
-0.05270
-0.05181
-0.02836
-0.02915
-0.00373
-0.04447
-0.00373
-0.02915
-0.02836
-0.06152
-0.02097
-0.03144
0.05798
-0.02165
-0.00728
-0.04784
-0.04740
0.11254
-0.00099
-0.04620
-0.04813
-0.00018
0.11850
-0.01740
-0.03892
-0.03627
0.19970
0.01820
-0.06131
-0.04600
-0.03700
-0.03808
0.01851
0.19584
-0.04636
-0.06023
0.00975
-0.03808
-0.08592
0.21350
0.03006
-0.08596
0.00975
-0.03700
-0.03627
-0.06904
-0.06988
-0.01665
0.23353
-0.01665
-0.06988
-0.06904
-0.03892
-0.08596
0.03006
0.21350
-0.08592
-0.01740
-0.06023
-0.04636
0.19584
0.01851
-0.04600
-0.06131
0.01820
0.19970
0.10000
