# vtk DataFile Version 3.0
Point representing Sub_cellular elem model
ASCII

DATASET UNSTRUCTURED_GRID
POINTS 36 float
-40.06237 -22.23765 64.78033 
-39.91604 22.38372 61.44938 
0.31549 -43.06370 72.38982 
0.00000 0.00000 77.58887 
-0.31549 43.06370 72.38982 
39.91604 -22.38372 61.44938 
40.06237 22.23765 64.78033 
-31.57809 -20.84060 57.56031 
-31.36616 20.68615 56.49885 
-0.00659 -35.13841 62.55728 
0.00000 0.00000 67.70582 
0.00659 35.13841 62.55728 
31.36616 -20.68615 56.49885 
31.57809 20.84060 57.56031 
-25.24804 -17.62113 47.75780 
-25.11850 17.50397 47.47668 
-0.07883 -28.07229 51.10037 
0.00000 0.00000 55.72431 
0.07883 28.07229 51.10037 
25.11850 -17.50397 47.47668 
25.24804 17.62113 47.75780 
-20.99123 -14.38298 36.63413 
-20.92553 14.35399 36.59438 
-0.05791 -25.45306 39.46207 
0.00000 0.00000 45.51634 
0.05791 25.45306 39.46207 
20.92553 -14.35399 36.59438 
20.99123 14.38298 36.63413 
-12.12975 -11.64564 26.96824 
-12.08697 11.64715 27.01563 
-0.04950 -17.71463 28.23123 
0.00000 0.00000 32.25510 
0.04950 17.71463 28.23123 
12.08697 -11.64715 27.01563 
12.12975 11.64564 26.96824 
0.00000 0.00000 -0.10000 
CELLS 233 698
2 0 1
2 0 2
2 0 3
2 1 3
2 1 4
2 2 3
2 2 5
2 3 4
2 3 5
2 3 6
2 4 6
2 5 6
2 7 8
2 7 9
2 7 10
2 8 10
2 8 11
2 9 10
2 9 12
2 10 11
2 10 12
2 10 13
2 11 13
2 12 13
2 14 15
2 14 16
2 14 17
2 15 17
2 15 18
2 16 17
2 16 19
2 17 18
2 17 19
2 17 20
2 18 20
2 19 20
2 21 22
2 21 23
2 21 24
2 22 24
2 22 25
2 23 24
2 23 26
2 24 25
2 24 26
2 24 27
2 25 27
2 26 27
2 28 29
2 28 30
2 28 31
2 29 31
2 29 32
2 30 31
2 30 33
2 31 32
2 31 33
2 31 34
2 32 34
2 33 34
2 0 1
2 0 2
2 0 3
2 0 7
2 0 8
2 0 9
2 0 10
2 1 3
2 1 4
2 1 7
2 1 8
2 1 10
2 1 11
2 2 3
2 2 5
2 2 7
2 2 9
2 2 10
2 2 12
2 3 4
2 3 5
2 3 6
2 3 7
2 3 8
2 3 9
2 3 10
2 3 11
2 3 12
2 3 13
2 4 6
2 4 8
2 4 10
2 4 11
2 4 13
2 5 6
2 5 9
2 5 10
2 5 12
2 5 13
2 6 10
2 6 11
2 6 12
2 6 13
2 7 8
2 7 9
2 7 10
2 7 14
2 7 15
2 7 16
2 7 17
2 8 10
2 8 11
2 8 14
2 8 15
2 8 17
2 8 18
2 9 10
2 9 12
2 9 14
2 9 16
2 9 17
2 9 19
2 10 11
2 10 12
2 10 13
2 10 14
2 10 15
2 10 16
2 10 17
2 10 18
2 10 19
2 10 20
2 11 13
2 11 15
2 11 17
2 11 18
2 11 20
2 12 13
2 12 16
2 12 17
2 12 19
2 12 20
2 13 17
2 13 18
2 13 19
2 13 20
2 14 15
2 14 16
2 14 17
2 14 21
2 14 22
2 14 23
2 14 24
2 15 17
2 15 18
2 15 21
2 15 22
2 15 24
2 15 25
2 16 17
2 16 19
2 16 21
2 16 23
2 16 24
2 16 26
2 17 18
2 17 19
2 17 20
2 17 21
2 17 22
2 17 23
2 17 24
2 17 25
2 17 26
2 17 27
2 18 20
2 18 22
2 18 24
2 18 25
2 18 27
2 19 20
2 19 23
2 19 24
2 19 26
2 19 27
2 20 24
2 20 25
2 20 26
2 20 27
2 21 22
2 21 23
2 21 24
2 21 28
2 21 29
2 21 30
2 21 31
2 22 24
2 22 25
2 22 28
2 22 29
2 22 31
2 22 32
2 23 24
2 23 26
2 23 28
2 23 30
2 23 31
2 23 33
2 24 25
2 24 26
2 24 27
2 24 28
2 24 29
2 24 30
2 24 31
2 24 32
2 24 33
2 24 34
2 25 27
2 25 29
2 25 31
2 25 32
2 25 34
2 26 27
2 26 30
2 26 31
2 26 33
2 26 34
2 27 31
2 27 32
2 27 33
2 27 34
1 35
CELL_TYPES 233
3
3
3
3
3
3
3
3
3
3
3
3
3
3
3
3
3
3
3
3
3
3
3
3
3
3
3
3
3
3
3
3
3
3
3
3
3
3
3
3
3
3
3
3
3
3
3
3
3
3
3
3
3
3
3
3
3
3
3
3
3
3
3
3
3
3
3
3
3
3
3
3
3
3
3
3
3
3
3
3
3
3
3
3
3
3
3
3
3
3
3
3
3
3
3
3
3
3
3
3
3
3
3
3
3
3
3
3
3
3
3
3
3
3
3
3
3
3
3
3
3
3
3
3
3
3
3
3
3
3
3
3
3
3
3
3
3
3
3
3
3
3
3
3
3
3
3
3
3
3
3
3
3
3
3
3
3
3
3
3
3
3
3
3
3
3
3
3
3
3
3
3
3
3
3
3
3
3
3
3
3
3
3
3
3
3
3
3
3
3
3
3
3
3
3
3
3
3
3
3
3
3
3
3
3
3
3
3
3
3
3
3
3
3
3
3
3
3
3
3
3
3
3
3
3
3
3
3
3
3
3
3
1
CELL_DATA 233
SCALARS Strain double 1
LOOKUP_TABLE default
-0.02816
-0.19474
0.14351
0.13877
-0.19285
0.02059
-0.19285
0.02059
0.13877
0.14351
-0.19474
-0.02816
0.00026
0.05339
0.31260
0.30684
0.05423
0.13806
0.05423
0.13806
0.30684
0.31260
0.05339
0.00026
0.02863
0.46607
0.39351
0.39186
0.46748
0.36357
0.46748
0.36357
0.39186
0.39351
0.46607
0.02863
-0.00719
0.21933
0.28902
0.28790
0.22100
0.01717
0.22100
0.01717
0.28790
0.28902
0.21933
-0.00719
-0.01011
0.50101
0.15216
0.15040
0.50792
-0.05028
0.50792
-0.05028
0.15040
0.15216
0.50101
-0.01011
-0.06773
0.08532
-0.00874
0.12278
-0.02899
0.03135
0.00025
0.01104
0.08367
-0.03725
0.00244
0.00625
0.02608
0.02200
0.08367
0.01825
0.26330
0.06019
0.01425
0.02200
0.01104
-0.00874
-0.06738
-0.06132
-0.06464
-0.01170
-0.06464
-0.06132
-0.06738
0.08532
0.01425
0.06019
0.26330
0.01825
-0.06773
0.02608
0.00625
0.00244
-0.03725
0.00025
0.03135
-0.02899
0.12278
-0.00658
-0.05306
-0.06324
0.21047
0.00738
-0.07346
-0.05008
-0.06235
-0.05164
-0.00279
0.14262
-0.05756
-0.07934
-0.03961
-0.05164
-0.04128
0.34609
0.00634
-0.03853
-0.03961
-0.06235
-0.06324
-0.08001
-0.07978
-0.08308
0.19815
-0.08308
-0.07978
-0.08001
-0.05306
-0.03853
0.00634
0.34609
-0.04128
-0.00658
-0.07934
-0.05756
0.14262
-0.00279
-0.05008
-0.07346
0.00738
0.21047
-0.01429
-0.12871
-0.10755
0.23426
0.00695
-0.08872
-0.08955
-0.11024
-0.12534
0.00074
0.20800
-0.09521
-0.09076
-0.09718
-0.12534
-0.04833
0.19294
-0.05678
-0.04502
-0.09718
-0.11024
-0.10755
-0.06181
-0.06277
-0.00464
0.02080
-0.00464
-0.06277
-0.06181
-0.12871
-0.04502
-0.05678
0.19294
-0.04833
-0.01429
-0.09076
-0.09521
0.20800
0.00074
-0.08955
-0.08872
0.00695
0.23426
-0.02439
-0.08443
-0.08500
0.33959
0.03981
-0.09564
-0.07878
-0.08682
-0.08205
0.03775
0.33117
-0.08150
-0.09484
0.00443
-0.08205
-0.12013
0.36388
0.04886
-0.11964
0.00443
-0.08682
-0.08500
-0.10677
-0.10874
-0.01868
0.32612
-0.01868
-0.10874
-0.10677
-0.08443
-0.11964
0.04886
0.36388
-0.12013
-0.02439
-0.09484
-0.08150
0.33117
0.03775
-0.07878
-0.09564
0.03981
0.33959
0.10000
