# vtk DataFile Version 3.0
Point representing Sub_cellular elem model
ASCII

DATASET UNSTRUCTURED_GRID
POINTS 36 float
-39.56784 -23.02006 63.62151 
-39.62633 23.11598 62.95203 
0.06799 -42.02343 68.25215 
0.00000 0.00000 78.04082 
-0.06799 42.02343 68.25215 
39.62633 -23.11598 62.95203 
39.56784 23.02006 63.62151 
-32.74255 -20.85175 55.84747 
-32.70874 20.81396 55.64582 
-0.00850 -35.34196 59.80867 
0.00000 0.00000 67.77309 
0.00850 35.34196 59.80867 
32.70874 -20.81396 55.64582 
32.74255 20.85175 55.84747 
-27.00727 -17.70340 47.01709 
-26.98088 17.66634 46.99041 
-0.02265 -29.20095 50.26802 
0.00000 0.00000 56.74762 
0.02265 29.20095 50.26802 
26.98088 -17.66634 46.99041 
27.00727 17.70340 47.01709 
-22.30227 -14.47381 37.35902 
-22.29399 14.46276 37.38787 
-0.01606 -25.39780 40.35783 
0.00000 0.00000 47.18258 
0.01606 25.39780 40.35783 
22.29399 -14.46276 37.38787 
22.30227 14.47381 37.35902 
-14.35761 -11.59311 28.78536 
-14.37509 11.60256 28.84006 
-0.01350 -18.30793 30.45554 
0.00000 0.00000 34.82161 
0.01350 18.30793 30.45554 
14.37509 -11.60256 28.84006 
14.35761 11.59311 28.78536 
0.00000 0.00000 -0.10000 
CELLS 233 698
2 0 1
2 0 2
2 0 3
2 1 3
2 1 4
2 2 3
2 2 5
2 3 4
2 3 5
2 3 6
2 4 6
2 5 6
2 7 8
2 7 9
2 7 10
2 8 10
2 8 11
2 9 10
2 9 12
2 10 11
2 10 12
2 10 13
2 11 13
2 12 13
2 14 15
2 14 16
2 14 17
2 15 17
2 15 18
2 16 17
2 16 19
2 17 18
2 17 19
2 17 20
2 18 20
2 19 20
2 21 22
2 21 23
2 21 24
2 22 24
2 22 25
2 23 24
2 23 26
2 24 25
2 24 26
2 24 27
2 25 27
2 26 27
2 28 29
2 28 30
2 28 31
2 29 31
2 29 32
2 30 31
2 30 33
2 31 32
2 31 33
2 31 34
2 32 34
2 33 34
2 0 1
2 0 2
2 0 3
2 0 7
2 0 8
2 0 9
2 0 10
2 1 3
2 1 4
2 1 7
2 1 8
2 1 10
2 1 11
2 2 3
2 2 5
2 2 7
2 2 9
2 2 10
2 2 12
2 3 4
2 3 5
2 3 6
2 3 7
2 3 8
2 3 9
2 3 10
2 3 11
2 3 12
2 3 13
2 4 6
2 4 8
2 4 10
2 4 11
2 4 13
2 5 6
2 5 9
2 5 10
2 5 12
2 5 13
2 6 10
2 6 11
2 6 12
2 6 13
2 7 8
2 7 9
2 7 10
2 7 14
2 7 15
2 7 16
2 7 17
2 8 10
2 8 11
2 8 14
2 8 15
2 8 17
2 8 18
2 9 10
2 9 12
2 9 14
2 9 16
2 9 17
2 9 19
2 10 11
2 10 12
2 10 13
2 10 14
2 10 15
2 10 16
2 10 17
2 10 18
2 10 19
2 10 20
2 11 13
2 11 15
2 11 17
2 11 18
2 11 20
2 12 13
2 12 16
2 12 17
2 12 19
2 12 20
2 13 17
2 13 18
2 13 19
2 13 20
2 14 15
2 14 16
2 14 17
2 14 21
2 14 22
2 14 23
2 14 24
2 15 17
2 15 18
2 15 21
2 15 22
2 15 24
2 15 25
2 16 17
2 16 19
2 16 21
2 16 23
2 16 24
2 16 26
2 17 18
2 17 19
2 17 20
2 17 21
2 17 22
2 17 23
2 17 24
2 17 25
2 17 26
2 17 27
2 18 20
2 18 22
2 18 24
2 18 25
2 18 27
2 19 20
2 19 23
2 19 24
2 19 26
2 19 27
2 20 24
2 20 25
2 20 26
2 20 27
2 21 22
2 21 23
2 21 24
2 21 28
2 21 29
2 21 30
2 21 31
2 22 24
2 22 25
2 22 28
2 22 29
2 22 31
2 22 32
2 23 24
2 23 26
2 23 28
2 23 30
2 23 31
2 23 33
2 24 25
2 24 26
2 24 27
2 24 28
2 24 29
2 24 30
2 24 31
2 24 32
2 24 33
2 24 34
2 25 27
2 25 29
2 25 31
2 25 32
2 25 34
2 26 27
2 26 30
2 26 31
2 26 33
2 26 34
2 27 31
2 27 32
2 27 33
2 27 34
1 35
CELL_TYPES 233
3
3
3
3
3
3
3
3
3
3
3
3
3
3
3
3
3
3
3
3
3
3
3
3
3
3
3
3
3
3
3
3
3
3
3
3
3
3
3
3
3
3
3
3
3
3
3
3
3
3
3
3
3
3
3
3
3
3
3
3
3
3
3
3
3
3
3
3
3
3
3
3
3
3
3
3
3
3
3
3
3
3
3
3
3
3
3
3
3
3
3
3
3
3
3
3
3
3
3
3
3
3
3
3
3
3
3
3
3
3
3
3
3
3
3
3
3
3
3
3
3
3
3
3
3
3
3
3
3
3
3
3
3
3
3
3
3
3
3
3
3
3
3
3
3
3
3
3
3
3
3
3
3
3
3
3
3
3
3
3
3
3
3
3
3
3
3
3
3
3
3
3
3
3
3
3
3
3
3
3
3
3
3
3
3
3
3
3
3
3
3
3
3
3
3
3
3
3
3
3
3
3
3
3
3
3
3
3
3
3
3
3
3
3
3
3
3
3
3
3
3
3
3
3
3
3
3
3
3
3
3
3
1
CELL_DATA 233
SCALARS Strain double 1
LOOKUP_TABLE default
0.00737
-0.09920
0.04649
0.03875
-0.09833
0.00372
-0.09833
0.00372
0.03875
0.04649
-0.09920
0.00737
0.00435
0.03607
0.11287
0.11260
0.03535
0.05125
0.03535
0.05125
0.11260
0.11287
0.03607
0.00435
0.01440
0.18212
0.15619
0.15766
0.18057
0.14342
0.18057
0.14342
0.15766
0.15619
0.18212
0.01440
-0.00030
0.10301
0.12518
0.12578
0.10235
0.01292
0.10235
0.01292
0.12578
0.12518
0.10301
-0.00030
-0.01424
0.21817
0.10538
0.10584
0.21794
-0.01617
0.21794
-0.01617
0.10584
0.10538
0.21817
-0.01424
-0.03866
0.04136
-0.00005
0.05698
-0.01795
0.01834
0.00136
0.00619
0.04053
-0.01820
0.03214
0.00492
0.01804
0.01660
0.04053
0.00274
0.07676
0.02855
0.00140
0.01660
0.00619
-0.00005
-0.02587
-0.02461
-0.02672
0.02677
-0.02672
-0.02461
-0.02587
0.04136
0.00140
0.02855
0.07676
0.00274
-0.03866
0.01804
0.00492
0.03214
-0.01820
0.00136
0.01834
-0.01795
0.05698
-0.00359
-0.02602
-0.02887
0.09900
0.00161
-0.03781
-0.02628
-0.02856
-0.02540
0.00012
0.08458
-0.02737
-0.03815
-0.02029
-0.02540
-0.02466
0.13462
-0.00272
-0.02406
-0.02029
-0.02856
-0.02887
-0.03734
-0.03787
-0.04288
0.10255
-0.04288
-0.03787
-0.03734
-0.02602
-0.02406
-0.00272
0.13462
-0.02466
-0.00359
-0.03815
-0.02737
0.08458
0.00012
-0.02628
-0.03781
0.00161
0.09900
-0.00747
-0.06352
-0.05358
0.12181
-0.00003
-0.04942
-0.04760
-0.05450
-0.06241
-0.00088
0.11552
-0.04884
-0.04912
-0.05083
-0.06241
-0.02248
0.06148
-0.03236
-0.02180
-0.05083
-0.05450
-0.05358
-0.02952
-0.03033
-0.00390
-0.04350
-0.00390
-0.03033
-0.02952
-0.06352
-0.02180
-0.03236
0.06148
-0.02248
-0.00747
-0.04912
-0.04884
0.11552
-0.00088
-0.04760
-0.04942
-0.00003
0.12181
-0.01761
-0.04022
-0.03773
0.20385
0.01880
-0.06246
-0.04710
-0.03849
-0.03935
0.01911
0.19982
-0.04746
-0.06135
0.00964
-0.03935
-0.08707
0.21788
0.03064
-0.08716
0.00964
-0.03849
-0.03773
-0.07031
-0.07119
-0.01677
0.23610
-0.01677
-0.07119
-0.07031
-0.04022
-0.08716
0.03064
0.21788
-0.08707
-0.01761
-0.06135
-0.04746
0.19982
0.01911
-0.04710
-0.06246
0.01880
0.20385
0.10000
