# vtk DataFile Version 3.0
Point representing Sub_cellular elem model
ASCII

DATASET UNSTRUCTURED_GRID
POINTS 36 float
-39.94585 -22.50317 64.41937 
-39.95075 22.63415 62.54784 
0.17362 -42.82169 70.49979 
0.00000 0.00000 77.71178 
-0.17362 42.82169 70.49979 
39.95075 -22.63415 62.54784 
39.94585 22.50317 64.41937 
-32.00818 -20.82256 56.91392 
-31.90162 20.73145 56.32120 
-0.00998 -35.20078 61.49571 
0.00000 0.00000 67.61688 
0.00998 35.20078 61.49571 
31.90162 -20.73145 56.32120 
32.00818 20.82256 56.91392 
-25.86375 -17.64322 47.46221 
-25.79175 17.57128 47.33274 
-0.04881 -28.45215 50.80154 
0.00000 0.00000 55.99723 
0.04881 28.45215 50.80154 
25.79175 -17.57128 47.33274 
25.86375 17.64322 47.46221 
-21.44763 -14.41002 36.86033 
-21.41521 14.39509 36.87349 
-0.03724 -25.44708 39.77910 
0.00000 0.00000 46.08576 
0.03724 25.44708 39.77910 
21.41521 -14.39509 36.87349 
21.44763 14.41002 36.86033 
-12.88792 -11.62847 27.59348 
-12.88520 11.64382 27.66580 
-0.02989 -17.93566 29.02376 
0.00000 0.00000 33.15119 
0.02989 17.93566 29.02376 
12.88520 -11.64382 27.66580 
12.88792 11.62847 27.59348 
0.00000 0.00000 -0.10000 
CELLS 233 698
2 0 1
2 0 2
2 0 3
2 1 3
2 1 4
2 2 3
2 2 5
2 3 4
2 3 5
2 3 6
2 4 6
2 5 6
2 7 8
2 7 9
2 7 10
2 8 10
2 8 11
2 9 10
2 9 12
2 10 11
2 10 12
2 10 13
2 11 13
2 12 13
2 14 15
2 14 16
2 14 17
2 15 17
2 15 18
2 16 17
2 16 19
2 17 18
2 17 19
2 17 20
2 18 20
2 19 20
2 21 22
2 21 23
2 21 24
2 22 24
2 22 25
2 23 24
2 23 26
2 24 25
2 24 26
2 24 27
2 25 27
2 26 27
2 28 29
2 28 30
2 28 31
2 29 31
2 29 32
2 30 31
2 30 33
2 31 32
2 31 33
2 31 34
2 32 34
2 33 34
2 0 1
2 0 2
2 0 3
2 0 7
2 0 8
2 0 9
2 0 10
2 1 3
2 1 4
2 1 7
2 1 8
2 1 10
2 1 11
2 2 3
2 2 5
2 2 7
2 2 9
2 2 10
2 2 12
2 3 4
2 3 5
2 3 6
2 3 7
2 3 8
2 3 9
2 3 10
2 3 11
2 3 12
2 3 13
2 4 6
2 4 8
2 4 10
2 4 11
2 4 13
2 5 6
2 5 9
2 5 10
2 5 12
2 5 13
2 6 10
2 6 11
2 6 12
2 6 13
2 7 8
2 7 9
2 7 10
2 7 14
2 7 15
2 7 16
2 7 17
2 8 10
2 8 11
2 8 14
2 8 15
2 8 17
2 8 18
2 9 10
2 9 12
2 9 14
2 9 16
2 9 17
2 9 19
2 10 11
2 10 12
2 10 13
2 10 14
2 10 15
2 10 16
2 10 17
2 10 18
2 10 19
2 10 20
2 11 13
2 11 15
2 11 17
2 11 18
2 11 20
2 12 13
2 12 16
2 12 17
2 12 19
2 12 20
2 13 17
2 13 18
2 13 19
2 13 20
2 14 15
2 14 16
2 14 17
2 14 21
2 14 22
2 14 23
2 14 24
2 15 17
2 15 18
2 15 21
2 15 22
2 15 24
2 15 25
2 16 17
2 16 19
2 16 21
2 16 23
2 16 24
2 16 26
2 17 18
2 17 19
2 17 20
2 17 21
2 17 22
2 17 23
2 17 24
2 17 25
2 17 26
2 17 27
2 18 20
2 18 22
2 18 24
2 18 25
2 18 27
2 19 20
2 19 23
2 19 24
2 19 26
2 19 27
2 20 24
2 20 25
2 20 26
2 20 27
2 21 22
2 21 23
2 21 24
2 21 28
2 21 29
2 21 30
2 21 31
2 22 24
2 22 25
2 22 28
2 22 29
2 22 31
2 22 32
2 23 24
2 23 26
2 23 28
2 23 30
2 23 31
2 23 33
2 24 25
2 24 26
2 24 27
2 24 28
2 24 29
2 24 30
2 24 31
2 24 32
2 24 33
2 24 34
2 25 27
2 25 29
2 25 31
2 25 32
2 25 34
2 26 27
2 26 30
2 26 31
2 26 33
2 26 34
2 27 31
2 27 32
2 27 33
2 27 34
1 35
CELL_TYPES 233
3
3
3
3
3
3
3
3
3
3
3
3
3
3
3
3
3
3
3
3
3
3
3
3
3
3
3
3
3
3
3
3
3
3
3
3
3
3
3
3
3
3
3
3
3
3
3
3
3
3
3
3
3
3
3
3
3
3
3
3
3
3
3
3
3
3
3
3
3
3
3
3
3
3
3
3
3
3
3
3
3
3
3
3
3
3
3
3
3
3
3
3
3
3
3
3
3
3
3
3
3
3
3
3
3
3
3
3
3
3
3
3
3
3
3
3
3
3
3
3
3
3
3
3
3
3
3
3
3
3
3
3
3
3
3
3
3
3
3
3
3
3
3
3
3
3
3
3
3
3
3
3
3
3
3
3
3
3
3
3
3
3
3
3
3
3
3
3
3
3
3
3
3
3
3
3
3
3
3
3
3
3
3
3
3
3
3
3
3
3
3
3
3
3
3
3
3
3
3
3
3
3
3
3
3
3
3
3
3
3
3
3
3
3
3
3
3
3
3
3
3
3
3
3
3
3
3
3
3
3
3
3
1
CELL_DATA 233
SCALARS Strain double 1
LOOKUP_TABLE default
-0.01710
-0.16688
0.10921
0.10109
-0.16548
0.01780
-0.16548
0.01780
0.10109
0.10921
-0.16688
-0.01710
0.00104
0.04815
0.23630
0.23291
0.04840
0.10617
0.04840
0.10617
0.23291
0.23630
0.04815
0.00104
0.02397
0.35348
0.30035
0.30045
0.35298
0.27727
0.35298
0.27727
0.30045
0.30035
0.35348
0.02397
-0.00484
0.17771
0.22771
0.22749
0.17819
0.01605
0.17819
0.01605
0.22749
0.22771
0.17771
-0.00484
-0.01098
0.38401
0.13488
0.13478
0.38739
-0.03786
0.38739
-0.03786
0.13478
0.13488
0.38401
-0.01098
-0.05876
0.06919
-0.00542
0.10527
-0.02585
0.02810
0.00125
0.00749
0.06753
-0.02980
0.03527
0.00639
0.02554
0.02312
0.06753
0.01034
0.17977
0.05040
0.00781
0.02312
0.00749
-0.00542
-0.05274
-0.04913
-0.05147
0.00949
-0.05147
-0.04913
-0.05274
0.06919
0.00781
0.05040
0.17977
0.01034
-0.05876
0.02554
0.00639
0.03527
-0.02980
0.00125
0.02810
-0.02585
0.10527
-0.00617
-0.04328
-0.05164
0.17131
0.00451
-0.06044
-0.04215
-0.05091
-0.04218
-0.00082
0.13185
-0.04587
-0.06300
-0.03379
-0.04218
-0.03691
0.26456
0.00159
-0.03548
-0.03379
-0.05091
-0.05164
-0.06625
-0.06660
-0.07089
0.16197
-0.07089
-0.06660
-0.06625
-0.04328
-0.03548
0.00159
0.26456
-0.03691
-0.00617
-0.06300
-0.04587
0.13185
-0.00082
-0.04215
-0.06044
0.00451
0.17131
-0.01181
-0.10561
-0.08937
0.19312
0.00377
-0.07556
-0.07574
-0.09112
-0.10349
0.00073
0.17744
-0.07885
-0.07598
-0.08220
-0.10349
-0.03955
0.14247
-0.04960
-0.03794
-0.08220
-0.09112
-0.08937
-0.05170
-0.05277
-0.00559
-0.00885
-0.00559
-0.05277
-0.05170
-0.10561
-0.03794
-0.04960
0.14247
-0.03955
-0.01181
-0.07598
-0.07885
0.17744
0.00073
-0.07574
-0.07556
0.00377
0.19312
-0.02208
-0.06848
-0.06855
0.29183
0.03200
-0.08502
-0.06866
-0.06982
-0.06686
0.03163
0.28497
-0.06984
-0.08374
0.00650
-0.06686
-0.10937
0.31187
0.04261
-0.10967
0.00650
-0.06982
-0.06855
-0.09509
-0.09677
-0.01850
0.29346
-0.01850
-0.09677
-0.09509
-0.06848
-0.10967
0.04261
0.31187
-0.10937
-0.02208
-0.08374
-0.06984
0.28497
0.03163
-0.06866
-0.08502
0.03200
0.29183
0.10000
