# vtk DataFile Version 3.0
Point representing Sub_cellular elem model
ASCII

DATASET UNSTRUCTURED_GRID
POINTS 36 float
-39.96683 -22.46453 64.47140 
-39.95972 22.59798 62.44778 
0.18743 -42.86868 70.72913 
0.00000 0.00000 77.69366 
-0.18743 42.86868 70.72913 
39.95972 -22.59798 62.44778 
39.96683 22.46453 64.47140 
-31.94819 -20.82286 57.00011 
-31.83124 20.72500 56.35735 
-0.00977 -35.19074 61.63860 
0.00000 0.00000 67.62136 
0.00977 35.19074 61.63860 
31.83124 -20.72500 56.35735 
31.94819 20.82286 57.00011 
-25.77527 -17.63916 47.50067 
-25.69725 17.56249 47.35575 
-0.05200 -28.39620 50.84345 
0.00000 0.00000 55.95181 
0.05200 28.39620 50.84345 
25.69725 -17.56249 47.35575 
25.77527 17.63916 47.50067 
-21.38178 -14.40569 36.82555 
-21.34585 14.38950 36.83381 
-0.03958 -25.44871 39.73439 
0.00000 0.00000 46.00277 
0.03958 25.44871 39.73439 
21.34585 -14.38950 36.83381 
21.38178 14.40569 36.82555 
-12.77734 -11.63107 27.50289 
-12.77065 11.64542 27.57362 
-0.03208 -17.90525 28.91153 
0.00000 0.00000 33.02177 
0.03208 17.90525 28.91153 
12.77065 -11.64542 27.57362 
12.77734 11.63107 27.50289 
0.00000 0.00000 -0.10000 
CELLS 233 698
2 0 1
2 0 2
2 0 3
2 1 3
2 1 4
2 2 3
2 2 5
2 3 4
2 3 5
2 3 6
2 4 6
2 5 6
2 7 8
2 7 9
2 7 10
2 8 10
2 8 11
2 9 10
2 9 12
2 10 11
2 10 12
2 10 13
2 11 13
2 12 13
2 14 15
2 14 16
2 14 17
2 15 17
2 15 18
2 16 17
2 16 19
2 17 18
2 17 19
2 17 20
2 18 20
2 19 20
2 21 22
2 21 23
2 21 24
2 22 24
2 22 25
2 23 24
2 23 26
2 24 25
2 24 26
2 24 27
2 25 27
2 26 27
2 28 29
2 28 30
2 28 31
2 29 31
2 29 32
2 30 31
2 30 33
2 31 32
2 31 33
2 31 34
2 32 34
2 33 34
2 0 1
2 0 2
2 0 3
2 0 7
2 0 8
2 0 9
2 0 10
2 1 3
2 1 4
2 1 7
2 1 8
2 1 10
2 1 11
2 2 3
2 2 5
2 2 7
2 2 9
2 2 10
2 2 12
2 3 4
2 3 5
2 3 6
2 3 7
2 3 8
2 3 9
2 3 10
2 3 11
2 3 12
2 3 13
2 4 6
2 4 8
2 4 10
2 4 11
2 4 13
2 5 6
2 5 9
2 5 10
2 5 12
2 5 13
2 6 10
2 6 11
2 6 12
2 6 13
2 7 8
2 7 9
2 7 10
2 7 14
2 7 15
2 7 16
2 7 17
2 8 10
2 8 11
2 8 14
2 8 15
2 8 17
2 8 18
2 9 10
2 9 12
2 9 14
2 9 16
2 9 17
2 9 19
2 10 11
2 10 12
2 10 13
2 10 14
2 10 15
2 10 16
2 10 17
2 10 18
2 10 19
2 10 20
2 11 13
2 11 15
2 11 17
2 11 18
2 11 20
2 12 13
2 12 16
2 12 17
2 12 19
2 12 20
2 13 17
2 13 18
2 13 19
2 13 20
2 14 15
2 14 16
2 14 17
2 14 21
2 14 22
2 14 23
2 14 24
2 15 17
2 15 18
2 15 21
2 15 22
2 15 24
2 15 25
2 16 17
2 16 19
2 16 21
2 16 23
2 16 24
2 16 26
2 17 18
2 17 19
2 17 20
2 17 21
2 17 22
2 17 23
2 17 24
2 17 25
2 17 26
2 17 27
2 18 20
2 18 22
2 18 24
2 18 25
2 18 27
2 19 20
2 19 23
2 19 24
2 19 26
2 19 27
2 20 24
2 20 25
2 20 26
2 20 27
2 21 22
2 21 23
2 21 24
2 21 28
2 21 29
2 21 30
2 21 31
2 22 24
2 22 25
2 22 28
2 22 29
2 22 31
2 22 32
2 23 24
2 23 26
2 23 28
2 23 30
2 23 31
2 23 33
2 24 25
2 24 26
2 24 27
2 24 28
2 24 29
2 24 30
2 24 31
2 24 32
2 24 33
2 24 34
2 25 27
2 25 29
2 25 31
2 25 32
2 25 34
2 26 27
2 26 30
2 26 31
2 26 33
2 26 34
2 27 31
2 27 32
2 27 33
2 27 34
1 35
CELL_TYPES 233
3
3
3
3
3
3
3
3
3
3
3
3
3
3
3
3
3
3
3
3
3
3
3
3
3
3
3
3
3
3
3
3
3
3
3
3
3
3
3
3
3
3
3
3
3
3
3
3
3
3
3
3
3
3
3
3
3
3
3
3
3
3
3
3
3
3
3
3
3
3
3
3
3
3
3
3
3
3
3
3
3
3
3
3
3
3
3
3
3
3
3
3
3
3
3
3
3
3
3
3
3
3
3
3
3
3
3
3
3
3
3
3
3
3
3
3
3
3
3
3
3
3
3
3
3
3
3
3
3
3
3
3
3
3
3
3
3
3
3
3
3
3
3
3
3
3
3
3
3
3
3
3
3
3
3
3
3
3
3
3
3
3
3
3
3
3
3
3
3
3
3
3
3
3
3
3
3
3
3
3
3
3
3
3
3
3
3
3
3
3
3
3
3
3
3
3
3
3
3
3
3
3
3
3
3
3
3
3
3
3
3
3
3
3
3
3
3
3
3
3
3
3
3
3
3
3
3
3
3
3
3
3
1
CELL_DATA 233
SCALARS Strain double 1
LOOKUP_TABLE default
-0.01883
-0.17126
0.11416
0.10627
-0.16981
0.01851
-0.16981
0.01851
0.10627
0.11416
-0.17126
-0.01883
0.00086
0.04897
0.24681
0.24313
0.04930
0.11064
0.04930
0.11064
0.24313
0.24681
0.04897
0.00086
0.02465
0.36867
0.31298
0.31290
0.36834
0.28897
0.36834
0.28897
0.31290
0.31298
0.36867
0.02465
-0.00519
0.18364
0.23623
0.23591
0.18426
0.01622
0.18426
0.01622
0.23591
0.23623
0.18364
-0.00519
-0.01080
0.39938
0.13728
0.13703
0.40318
-0.03960
0.40318
-0.03960
0.13703
0.13728
0.39938
-0.01080
-0.06018
0.07139
-0.00584
0.10821
-0.02637
0.02865
0.00116
0.00783
0.06969
-0.03080
0.03283
0.00643
0.02581
0.02326
0.06969
0.01123
0.19007
0.05193
0.00856
0.02326
0.00783
-0.00584
-0.05478
-0.05090
-0.05334
0.00723
-0.05334
-0.05090
-0.05478
0.07139
0.00856
0.05193
0.19007
0.01123
-0.06018
0.02581
0.00643
0.03283
-0.03080
0.00116
0.02865
-0.02637
0.10821
-0.00629
-0.04465
-0.05332
0.17677
0.00482
-0.06227
-0.04332
-0.05255
-0.04351
-0.00102
0.13426
-0.04742
-0.06516
-0.03469
-0.04351
-0.03766
0.27555
0.00214
-0.03610
-0.03469
-0.05255
-0.05332
-0.06830
-0.06859
-0.07277
0.16695
-0.07277
-0.06859
-0.06830
-0.04465
-0.03610
0.00214
0.27555
-0.03766
-0.00629
-0.06516
-0.04742
0.13426
-0.00102
-0.04332
-0.06227
0.00482
0.17677
-0.01217
-0.10889
-0.09203
0.19881
0.00415
-0.07751
-0.07780
-0.09387
-0.10665
0.00078
0.18200
-0.08116
-0.07808
-0.08444
-0.10665
-0.04083
0.14934
-0.05074
-0.03906
-0.08444
-0.09387
-0.09203
-0.05324
-0.05430
-0.00555
-0.00510
-0.00555
-0.05430
-0.05324
-0.10889
-0.03906
-0.05074
0.14934
-0.04083
-0.01217
-0.07808
-0.08116
0.18200
0.00078
-0.07780
-0.07751
0.00415
0.19881
-0.02241
-0.07073
-0.07092
0.29865
0.03308
-0.08663
-0.07019
-0.07226
-0.06902
0.03255
0.29158
-0.07152
-0.08538
0.00621
-0.06902
-0.11096
0.31924
0.04352
-0.11120
0.00621
-0.07226
-0.07092
-0.09685
-0.09857
-0.01858
0.29810
-0.01858
-0.09857
-0.09685
-0.07073
-0.11120
0.04352
0.31924
-0.11096
-0.02241
-0.08538
-0.07152
0.29158
0.03255
-0.07019
-0.08663
0.03308
0.29865
0.10000
