# vtk DataFile Version 3.0
Point representing Sub_cellular elem model
ASCII

DATASET UNSTRUCTURED_GRID
POINTS 36 float
-40.07683 -22.18448 64.86381 
-39.86977 22.33245 61.07998 
0.36383 -43.08002 72.86948 
0.00000 0.00000 77.56259 
-0.36383 43.08002 72.86948 
39.86977 -22.33245 61.07998 
40.07683 22.18448 64.86381 
-31.48876 -20.84977 57.71229 
-31.24253 20.67656 56.51272 
-0.00524 -35.12858 62.79172 
0.00000 0.00000 67.74290 
0.00524 35.12858 62.79172 
31.24253 -20.67656 56.51272 
31.48876 20.84977 57.71229 
-25.12545 -17.61899 47.82852 
-24.97841 17.48829 47.50040 
-0.08792 -27.99925 51.16121 
0.00000 0.00000 55.68276 
0.08792 27.99925 51.16121 
24.97841 -17.48829 47.50040 
25.12545 17.61899 47.82852 
-20.90110 -14.37869 36.59413 
-20.82544 14.34489 36.53657 
-0.06362 -25.45263 39.39414 
0.00000 0.00000 45.40455 
0.06362 25.45263 39.39414 
20.82544 -14.34489 36.53657 
20.90110 14.37869 36.59413 
-11.98242 -11.64852 26.84418 
-11.92688 11.64459 26.88096 
-0.05485 -17.66617 28.06631 
0.00000 0.00000 32.07778 
0.05485 17.66617 28.06631 
11.92688 -11.64459 26.88096 
11.98242 11.64852 26.84418 
0.00000 0.00000 -0.10000 
CELLS 233 698
2 0 1
2 0 2
2 0 3
2 1 3
2 1 4
2 2 3
2 2 5
2 3 4
2 3 5
2 3 6
2 4 6
2 5 6
2 7 8
2 7 9
2 7 10
2 8 10
2 8 11
2 9 10
2 9 12
2 10 11
2 10 12
2 10 13
2 11 13
2 12 13
2 14 15
2 14 16
2 14 17
2 15 17
2 15 18
2 16 17
2 16 19
2 17 18
2 17 19
2 17 20
2 18 20
2 19 20
2 21 22
2 21 23
2 21 24
2 22 24
2 22 25
2 23 24
2 23 26
2 24 25
2 24 26
2 24 27
2 25 27
2 26 27
2 28 29
2 28 30
2 28 31
2 29 31
2 29 32
2 30 31
2 30 33
2 31 32
2 31 33
2 31 34
2 32 34
2 33 34
2 0 1
2 0 2
2 0 3
2 0 7
2 0 8
2 0 9
2 0 10
2 1 3
2 1 4
2 1 7
2 1 8
2 1 10
2 1 11
2 2 3
2 2 5
2 2 7
2 2 9
2 2 10
2 2 12
2 3 4
2 3 5
2 3 6
2 3 7
2 3 8
2 3 9
2 3 10
2 3 11
2 3 12
2 3 13
2 4 6
2 4 8
2 4 10
2 4 11
2 4 13
2 5 6
2 5 9
2 5 10
2 5 12
2 5 13
2 6 10
2 6 11
2 6 12
2 6 13
2 7 8
2 7 9
2 7 10
2 7 14
2 7 15
2 7 16
2 7 17
2 8 10
2 8 11
2 8 14
2 8 15
2 8 17
2 8 18
2 9 10
2 9 12
2 9 14
2 9 16
2 9 17
2 9 19
2 10 11
2 10 12
2 10 13
2 10 14
2 10 15
2 10 16
2 10 17
2 10 18
2 10 19
2 10 20
2 11 13
2 11 15
2 11 17
2 11 18
2 11 20
2 12 13
2 12 16
2 12 17
2 12 19
2 12 20
2 13 17
2 13 18
2 13 19
2 13 20
2 14 15
2 14 16
2 14 17
2 14 21
2 14 22
2 14 23
2 14 24
2 15 17
2 15 18
2 15 21
2 15 22
2 15 24
2 15 25
2 16 17
2 16 19
2 16 21
2 16 23
2 16 24
2 16 26
2 17 18
2 17 19
2 17 20
2 17 21
2 17 22
2 17 23
2 17 24
2 17 25
2 17 26
2 17 27
2 18 20
2 18 22
2 18 24
2 18 25
2 18 27
2 19 20
2 19 23
2 19 24
2 19 26
2 19 27
2 20 24
2 20 25
2 20 26
2 20 27
2 21 22
2 21 23
2 21 24
2 21 28
2 21 29
2 21 30
2 21 31
2 22 24
2 22 25
2 22 28
2 22 29
2 22 31
2 22 32
2 23 24
2 23 26
2 23 28
2 23 30
2 23 31
2 23 33
2 24 25
2 24 26
2 24 27
2 24 28
2 24 29
2 24 30
2 24 31
2 24 32
2 24 33
2 24 34
2 25 27
2 25 29
2 25 31
2 25 32
2 25 34
2 26 27
2 26 30
2 26 31
2 26 33
2 26 34
2 27 31
2 27 32
2 27 33
2 27 34
1 35
CELL_TYPES 233
3
3
3
3
3
3
3
3
3
3
3
3
3
3
3
3
3
3
3
3
3
3
3
3
3
3
3
3
3
3
3
3
3
3
3
3
3
3
3
3
3
3
3
3
3
3
3
3
3
3
3
3
3
3
3
3
3
3
3
3
3
3
3
3
3
3
3
3
3
3
3
3
3
3
3
3
3
3
3
3
3
3
3
3
3
3
3
3
3
3
3
3
3
3
3
3
3
3
3
3
3
3
3
3
3
3
3
3
3
3
3
3
3
3
3
3
3
3
3
3
3
3
3
3
3
3
3
3
3
3
3
3
3
3
3
3
3
3
3
3
3
3
3
3
3
3
3
3
3
3
3
3
3
3
3
3
3
3
3
3
3
3
3
3
3
3
3
3
3
3
3
3
3
3
3
3
3
3
3
3
3
3
3
3
3
3
3
3
3
3
3
3
3
3
3
3
3
3
3
3
3
3
3
3
3
3
3
3
3
3
3
3
3
3
3
3
3
3
3
3
3
3
3
3
3
3
3
3
3
3
3
3
1
CELL_DATA 233
SCALARS Strain double 1
LOOKUP_TABLE default
-0.02996
-0.19953
0.15022
0.14688
-0.19746
0.02039
-0.19746
0.02039
0.14688
0.15022
-0.19953
-0.02996
0.00028
0.05429
0.32876
0.32241
0.05525
0.14468
0.05525
0.14468
0.32241
0.32876
0.05429
0.00028
0.02954
0.49067
0.41376
0.41156
0.49274
0.38233
0.49274
0.38233
0.41156
0.41376
0.49067
0.02954
-0.00765
0.22775
0.30191
0.30053
0.22975
0.01739
0.22975
0.01739
0.30053
0.30191
0.22775
-0.00765
-0.01009
0.52764
0.15586
0.15353
0.53543
-0.05288
0.53543
-0.05288
0.15353
0.15586
0.52764
-0.01009
-0.06914
0.08894
-0.00962
0.12552
-0.02943
0.03186
-0.00010
0.01216
0.08741
-0.03890
-0.00990
0.00608
0.02578
0.02103
0.08741
0.02046
0.28422
0.06182
0.01588
0.02103
0.01216
-0.00962
-0.07053
-0.06381
-0.06735
-0.01803
-0.06735
-0.06381
-0.07053
0.08894
0.01588
0.06182
0.28422
0.02046
-0.06914
0.02578
0.00608
-0.00990
-0.03890
-0.00010
0.03186
-0.02943
0.12552
-0.00650
-0.05509
-0.06555
0.21909
0.00824
-0.07610
-0.05157
-0.06467
-0.05361
-0.00339
0.14291
-0.06025
-0.08305
-0.04064
-0.05361
-0.04189
0.36420
0.00758
-0.03873
-0.04064
-0.06467
-0.06555
-0.08260
-0.08219
-0.08519
0.20601
-0.08519
-0.08219
-0.08260
-0.05509
-0.03873
0.00758
0.36420
-0.04189
-0.00650
-0.08305
-0.06025
0.14291
-0.00339
-0.05157
-0.07610
0.00824
0.21909
-0.01478
-0.13344
-0.11110
0.24320
0.00781
-0.09117
-0.09213
-0.11407
-0.12969
0.00061
0.21381
-0.09859
-0.09377
-0.09999
-0.12969
-0.05009
0.20395
-0.05801
-0.04622
-0.09999
-0.11407
-0.11110
-0.06365
-0.06454
-0.00418
0.02782
-0.00418
-0.06454
-0.06365
-0.13344
-0.04622
-0.05801
0.20395
-0.05009
-0.01478
-0.09377
-0.09859
0.21381
0.00061
-0.09213
-0.09117
0.00781
0.24320
-0.02484
-0.08772
-0.08826
0.34930
0.04147
-0.09753
-0.08063
-0.09023
-0.08512
0.03885
0.34056
-0.08385
-0.09695
0.00403
-0.08512
-0.12224
0.37459
0.05003
-0.12143
0.00403
-0.09023
-0.08826
-0.10893
-0.11092
-0.01858
0.33268
-0.01858
-0.11092
-0.10893
-0.08772
-0.12143
0.05003
0.37459
-0.12224
-0.02484
-0.09695
-0.08385
0.34056
0.03885
-0.08063
-0.09753
0.04147
0.34930
0.10000
