# vtk DataFile Version 3.0
Point representing Sub_cellular elem model
ASCII

DATASET UNSTRUCTURED_GRID
POINTS 36 float
-39.44232 -23.49120 63.67541 
-39.41693 23.47798 63.24499 
0.02682 -41.86317 67.79945 
-0.00000 0.00000 77.23164 
-0.02682 41.86317 67.79945 
39.41693 -23.47798 63.24499 
39.44232 23.49120 63.67541 
-33.05910 -20.84338 55.71861 
-33.03114 20.80272 55.62879 
-0.01341 -35.57829 59.27939 
-0.00000 0.00000 67.26663 
0.01341 35.57829 59.27939 
33.03114 -20.80272 55.62879 
33.05910 20.84338 55.71861 
-27.41630 -17.74665 47.01501 
-27.40649 17.73592 47.04902 
-0.01382 -29.39738 49.98911 
-0.00000 0.00000 56.54287 
0.01382 29.39738 49.98911 
27.40649 -17.73592 47.04902 
27.41630 17.74665 47.01501 
-22.76469 -14.60645 37.70324 
-22.77094 14.62068 37.77992 
-0.01123 -25.28994 40.19766 
-0.00000 0.00000 46.67697 
0.01123 25.28994 40.19766 
22.77094 -14.62068 37.77992 
22.76469 14.60645 37.70324 
-16.36656 -11.70167 29.08840 
-16.40668 11.74814 29.19612 
-0.00350 -19.37025 30.74281 
0.00000 0.00000 35.80942 
0.00350 19.37025 30.74281 
16.40668 -11.74814 29.19612 
16.36656 11.70167 29.08840 
0.00000 0.00000 -0.10000 
CELLS 233 698
2 0 1
2 0 2
2 0 3
2 1 3
2 1 4
2 2 3
2 2 5
2 3 4
2 3 5
2 3 6
2 4 6
2 5 6
2 7 8
2 7 9
2 7 10
2 8 10
2 8 11
2 9 10
2 9 12
2 10 11
2 10 12
2 10 13
2 11 13
2 12 13
2 14 15
2 14 16
2 14 17
2 15 17
2 15 18
2 16 17
2 16 19
2 17 18
2 17 19
2 17 20
2 18 20
2 19 20
2 21 22
2 21 23
2 21 24
2 22 24
2 22 25
2 23 24
2 23 26
2 24 25
2 24 26
2 24 27
2 25 27
2 26 27
2 28 29
2 28 30
2 28 31
2 29 31
2 29 32
2 30 31
2 30 33
2 31 32
2 31 33
2 31 34
2 32 34
2 33 34
2 0 1
2 0 2
2 0 3
2 0 7
2 0 8
2 0 9
2 0 10
2 1 3
2 1 4
2 1 7
2 1 8
2 1 10
2 1 11
2 2 3
2 2 5
2 2 7
2 2 9
2 2 10
2 2 12
2 3 4
2 3 5
2 3 6
2 3 7
2 3 8
2 3 9
2 3 10
2 3 11
2 3 12
2 3 13
2 4 6
2 4 8
2 4 10
2 4 11
2 4 13
2 5 6
2 5 9
2 5 10
2 5 12
2 5 13
2 6 10
2 6 11
2 6 12
2 6 13
2 7 8
2 7 9
2 7 10
2 7 14
2 7 15
2 7 16
2 7 17
2 8 10
2 8 11
2 8 14
2 8 15
2 8 17
2 8 18
2 9 10
2 9 12
2 9 14
2 9 16
2 9 17
2 9 19
2 10 11
2 10 12
2 10 13
2 10 14
2 10 15
2 10 16
2 10 17
2 10 18
2 10 19
2 10 20
2 11 13
2 11 15
2 11 17
2 11 18
2 11 20
2 12 13
2 12 16
2 12 17
2 12 19
2 12 20
2 13 17
2 13 18
2 13 19
2 13 20
2 14 15
2 14 16
2 14 17
2 14 21
2 14 22
2 14 23
2 14 24
2 15 17
2 15 18
2 15 21
2 15 22
2 15 24
2 15 25
2 16 17
2 16 19
2 16 21
2 16 23
2 16 24
2 16 26
2 17 18
2 17 19
2 17 20
2 17 21
2 17 22
2 17 23
2 17 24
2 17 25
2 17 26
2 17 27
2 18 20
2 18 22
2 18 24
2 18 25
2 18 27
2 19 20
2 19 23
2 19 24
2 19 26
2 19 27
2 20 24
2 20 25
2 20 26
2 20 27
2 21 22
2 21 23
2 21 24
2 21 28
2 21 29
2 21 30
2 21 31
2 22 24
2 22 25
2 22 28
2 22 29
2 22 31
2 22 32
2 23 24
2 23 26
2 23 28
2 23 30
2 23 31
2 23 33
2 24 25
2 24 26
2 24 27
2 24 28
2 24 29
2 24 30
2 24 31
2 24 32
2 24 33
2 24 34
2 25 27
2 25 29
2 25 31
2 25 32
2 25 34
2 26 27
2 26 30
2 26 31
2 26 33
2 26 34
2 27 31
2 27 32
2 27 33
2 27 34
1 35
CELL_TYPES 233
3
3
3
3
3
3
3
3
3
3
3
3
3
3
3
3
3
3
3
3
3
3
3
3
3
3
3
3
3
3
3
3
3
3
3
3
3
3
3
3
3
3
3
3
3
3
3
3
3
3
3
3
3
3
3
3
3
3
3
3
3
3
3
3
3
3
3
3
3
3
3
3
3
3
3
3
3
3
3
3
3
3
3
3
3
3
3
3
3
3
3
3
3
3
3
3
3
3
3
3
3
3
3
3
3
3
3
3
3
3
3
3
3
3
3
3
3
3
3
3
3
3
3
3
3
3
3
3
3
3
3
3
3
3
3
3
3
3
3
3
3
3
3
3
3
3
3
3
3
3
3
3
3
3
3
3
3
3
3
3
3
3
3
3
3
3
3
3
3
3
3
3
3
3
3
3
3
3
3
3
3
3
3
3
3
3
3
3
3
3
3
3
3
3
3
3
3
3
3
3
3
3
3
3
3
3
3
3
3
3
3
3
3
3
3
3
3
3
3
3
3
3
3
3
3
3
3
3
3
3
3
3
1
CELL_DATA 233
SCALARS Strain double 1
LOOKUP_TABLE default
-0.02452
-0.09462
0.05513
0.05725
-0.09510
0.01652
-0.09510
0.01652
0.05725
0.05513
-0.09462
-0.02452
-0.00480
0.01256
0.10603
0.10554
0.01323
0.04040
0.01323
0.04040
0.10554
0.10603
0.01256
-0.00480
0.01062
0.13667
0.12676
0.12600
0.13732
0.12205
0.13732
0.12205
0.12600
0.12676
0.13667
0.01062
-0.00775
0.08023
0.10252
0.10207
0.08076
0.01313
0.08076
0.01313
0.10207
0.10252
0.08023
-0.00775
0.00751
0.12015
0.03833
0.03945
0.12098
-0.02719
0.12098
-0.02719
0.03945
0.03833
0.12015
0.00751
-0.02136
0.03032
-0.00269
0.05388
-0.00935
0.01503
0.00317
-0.00068
0.02977
-0.01088
0.02928
0.00333
0.01409
0.01105
0.02977
0.00387
0.05874
0.02465
0.00342
0.01105
-0.00068
-0.00269
-0.02813
-0.02805
-0.02469
-0.00350
-0.02469
-0.02805
-0.02813
0.03032
0.00342
0.02465
0.05874
0.00387
-0.02136
0.01409
0.00333
0.02928
-0.01088
0.00317
0.01503
-0.00935
0.05388
-0.00407
-0.01681
-0.02545
0.08251
0.00167
-0.02696
-0.01973
-0.02588
-0.01615
0.00051
0.07076
-0.02082
-0.02710
-0.01392
-0.01615
-0.01835
0.11585
0.00315
-0.01815
-0.01392
-0.02588
-0.02545
-0.03633
-0.03708
-0.04140
0.07238
-0.04140
-0.03708
-0.03633
-0.01681
-0.01815
0.00315
0.11585
-0.01835
-0.00407
-0.02710
-0.02082
0.07076
0.00051
-0.01973
-0.02696
0.00167
0.08251
-0.00430
-0.05041
-0.04534
0.08723
0.00210
-0.03675
-0.03676
-0.04598
-0.04986
0.00228
0.08217
-0.03716
-0.03600
-0.04424
-0.04986
-0.01838
0.06180
-0.02511
-0.01879
-0.04424
-0.04598
-0.04534
-0.02786
-0.02883
-0.00768
-0.01341
-0.00768
-0.02883
-0.02786
-0.05041
-0.01879
-0.02511
0.06180
-0.01838
-0.00430
-0.03600
-0.03716
0.08217
0.00228
-0.03676
-0.03675
0.00210
0.08723
-0.00775
-0.03023
-0.03252
0.11172
0.01377
-0.03758
-0.03262
-0.03292
-0.02976
0.01506
0.10652
-0.03196
-0.03632
0.00227
-0.02976
-0.04880
0.11551
0.01770
-0.05012
0.00227
-0.03292
-0.03252
-0.04655
-0.04746
-0.00553
0.08675
-0.00553
-0.04746
-0.04655
-0.03023
-0.05012
0.01770
0.11551
-0.04880
-0.00775
-0.03632
-0.03196
0.10652
0.01506
-0.03262
-0.03758
0.01377
0.11172
0.10000
