# vtk DataFile Version 3.0
Point representing Sub_cellular elem model
ASCII

DATASET UNSTRUCTURED_GRID
POINTS 36 float
-39.30235 -23.29361 63.12984 
-39.36249 23.37006 62.81499 
0.03499 -41.53106 67.39661 
-0.00000 0.00000 78.31380 
-0.03499 41.53106 67.39661 
39.36249 -23.37006 62.81499 
39.30235 23.29361 63.12984 
-33.09844 -20.87476 55.31091 
-33.08076 20.85320 55.21216 
-0.00535 -35.40866 59.01041 
-0.00000 0.00000 68.00823 
0.00535 35.40866 59.01041 
33.08076 -20.85320 55.21216 
33.09844 20.87476 55.31091 
-27.59631 -17.73166 46.81411 
-27.57980 17.70238 46.79406 
-0.01427 -29.59349 49.97875 
-0.00000 0.00000 57.24121 
0.01427 29.59349 49.97875 
27.57980 -17.70238 46.79406 
27.59631 17.73166 46.81411 
-22.74396 -14.51112 37.64464 
-22.73607 14.49531 37.64926 
-0.00846 -25.34777 40.64849 
-0.00000 0.00000 47.75030 
0.00846 25.34777 40.64849 
22.73607 -14.49531 37.64926 
22.74396 14.51112 37.64464 
-15.14092 -11.57407 29.40375 
-15.14842 11.56586 29.41701 
-0.01157 -18.48321 31.16049 
-0.00000 0.00000 35.65891 
0.01157 18.48321 31.16049 
15.14842 -11.56586 29.41701 
15.14092 11.57407 29.40375 
0.00000 0.00000 -0.10000 
CELLS 233 698
2 0 1
2 0 2
2 0 3
2 1 3
2 1 4
2 2 3
2 2 5
2 3 4
2 3 5
2 3 6
2 4 6
2 5 6
2 7 8
2 7 9
2 7 10
2 8 10
2 8 11
2 9 10
2 9 12
2 10 11
2 10 12
2 10 13
2 11 13
2 12 13
2 14 15
2 14 16
2 14 17
2 15 17
2 15 18
2 16 17
2 16 19
2 17 18
2 17 19
2 17 20
2 18 20
2 19 20
2 21 22
2 21 23
2 21 24
2 22 24
2 22 25
2 23 24
2 23 26
2 24 25
2 24 26
2 24 27
2 25 27
2 26 27
2 28 29
2 28 30
2 28 31
2 29 31
2 29 32
2 30 31
2 30 33
2 31 32
2 31 33
2 31 34
2 32 34
2 33 34
2 0 1
2 0 2
2 0 3
2 0 7
2 0 8
2 0 9
2 0 10
2 1 3
2 1 4
2 1 7
2 1 8
2 1 10
2 1 11
2 2 3
2 2 5
2 2 7
2 2 9
2 2 10
2 2 12
2 3 4
2 3 5
2 3 6
2 3 7
2 3 8
2 3 9
2 3 10
2 3 11
2 3 12
2 3 13
2 4 6
2 4 8
2 4 10
2 4 11
2 4 13
2 5 6
2 5 9
2 5 10
2 5 12
2 5 13
2 6 10
2 6 11
2 6 12
2 6 13
2 7 8
2 7 9
2 7 10
2 7 14
2 7 15
2 7 16
2 7 17
2 8 10
2 8 11
2 8 14
2 8 15
2 8 17
2 8 18
2 9 10
2 9 12
2 9 14
2 9 16
2 9 17
2 9 19
2 10 11
2 10 12
2 10 13
2 10 14
2 10 15
2 10 16
2 10 17
2 10 18
2 10 19
2 10 20
2 11 13
2 11 15
2 11 17
2 11 18
2 11 20
2 12 13
2 12 16
2 12 17
2 12 19
2 12 20
2 13 17
2 13 18
2 13 19
2 13 20
2 14 15
2 14 16
2 14 17
2 14 21
2 14 22
2 14 23
2 14 24
2 15 17
2 15 18
2 15 21
2 15 22
2 15 24
2 15 25
2 16 17
2 16 19
2 16 21
2 16 23
2 16 24
2 16 26
2 17 18
2 17 19
2 17 20
2 17 21
2 17 22
2 17 23
2 17 24
2 17 25
2 17 26
2 17 27
2 18 20
2 18 22
2 18 24
2 18 25
2 18 27
2 19 20
2 19 23
2 19 24
2 19 26
2 19 27
2 20 24
2 20 25
2 20 26
2 20 27
2 21 22
2 21 23
2 21 24
2 21 28
2 21 29
2 21 30
2 21 31
2 22 24
2 22 25
2 22 28
2 22 29
2 22 31
2 22 32
2 23 24
2 23 26
2 23 28
2 23 30
2 23 31
2 23 33
2 24 25
2 24 26
2 24 27
2 24 28
2 24 29
2 24 30
2 24 31
2 24 32
2 24 33
2 24 34
2 25 27
2 25 29
2 25 31
2 25 32
2 25 34
2 26 27
2 26 30
2 26 31
2 26 33
2 26 34
2 27 31
2 27 32
2 27 33
2 27 34
1 35
CELL_TYPES 233
3
3
3
3
3
3
3
3
3
3
3
3
3
3
3
3
3
3
3
3
3
3
3
3
3
3
3
3
3
3
3
3
3
3
3
3
3
3
3
3
3
3
3
3
3
3
3
3
3
3
3
3
3
3
3
3
3
3
3
3
3
3
3
3
3
3
3
3
3
3
3
3
3
3
3
3
3
3
3
3
3
3
3
3
3
3
3
3
3
3
3
3
3
3
3
3
3
3
3
3
3
3
3
3
3
3
3
3
3
3
3
3
3
3
3
3
3
3
3
3
3
3
3
3
3
3
3
3
3
3
3
3
3
3
3
3
3
3
3
3
3
3
3
3
3
3
3
3
3
3
3
3
3
3
3
3
3
3
3
3
3
3
3
3
3
3
3
3
3
3
3
3
3
3
3
3
3
3
3
3
3
3
3
3
3
3
3
3
3
3
3
3
3
3
3
3
3
3
3
3
3
3
3
3
3
3
3
3
3
3
3
3
3
3
3
3
3
3
3
3
3
3
3
3
3
3
3
3
3
3
3
3
1
CELL_DATA 233
SCALARS Strain double 1
LOOKUP_TABLE default
0.02073
-0.05554
0.01575
0.00916
-0.05496
-0.00514
-0.05496
-0.00514
0.00916
0.01575
-0.05554
0.02073
0.00623
0.02894
0.05791
0.05886
0.02771
0.02518
0.02771
0.02518
0.05886
0.05791
0.02894
0.00623
0.00875
0.10938
0.09407
0.09594
0.10764
0.08560
0.10764
0.08560
0.09594
0.09407
0.10938
0.00875
0.00211
0.06637
0.07760
0.07848
0.06528
0.01049
0.06528
0.01049
0.07848
0.07760
0.06637
0.00211
-0.01661
0.15136
0.09118
0.09119
0.15012
-0.00570
0.15012
-0.00570
0.09119
0.09118
0.15136
-0.01661
-0.02775
0.02651
0.00307
0.02701
-0.01355
0.01146
0.00096
0.00695
0.02630
-0.01287
0.01783
0.00367
0.01183
0.01174
0.02630
0.00032
0.03834
0.01654
-0.00043
0.01174
0.00695
0.00307
-0.01113
-0.01053
-0.01300
0.03056
-0.01300
-0.01053
-0.01113
0.02651
-0.00043
0.01654
0.03834
0.00032
-0.02775
0.01183
0.00367
0.01783
-0.01287
0.00096
0.01146
-0.01355
0.02701
-0.00211
-0.01746
-0.01617
0.05994
0.00032
-0.02655
-0.01750
-0.01604
-0.01712
-0.00024
0.05381
-0.01804
-0.02653
-0.01202
-0.01712
-0.01707
0.07419
-0.00333
-0.01658
-0.01202
-0.01604
-0.01617
-0.02065
-0.02100
-0.02581
0.07670
-0.02581
-0.02100
-0.02065
-0.01746
-0.01658
-0.00333
0.07419
-0.01707
-0.00211
-0.02653
-0.01804
0.05381
-0.00024
-0.01750
-0.02655
0.00032
0.05994
-0.00566
-0.04196
-0.03414
0.08626
-0.00151
-0.03523
-0.03219
-0.03476
-0.04118
-0.00212
0.08339
-0.03305
-0.03510
-0.03305
-0.04118
-0.01345
0.02508
-0.02202
-0.01273
-0.03305
-0.03476
-0.03414
-0.01657
-0.01701
-0.00164
-0.05091
-0.00164
-0.01701
-0.01657
-0.04196
-0.01273
-0.02202
0.02508
-0.01345
-0.00566
-0.03510
-0.03305
0.08339
-0.00212
-0.03219
-0.03523
-0.00151
0.08626
-0.01524
-0.02623
-0.02193
0.15908
0.01253
-0.04960
-0.03483
-0.02247
-0.02568
0.01247
0.15726
-0.03536
-0.04888
0.01060
-0.02568
-0.07426
0.17109
0.02429
-0.07370
0.01060
-0.02247
-0.02193
-0.05617
-0.05648
-0.01527
0.20914
-0.01527
-0.05648
-0.05617
-0.02623
-0.07370
0.02429
0.17109
-0.07426
-0.01524
-0.04888
-0.03536
0.15726
0.01247
-0.03483
-0.04960
0.01253
0.15908
0.10000
