# vtk DataFile Version 3.0
Point representing Sub_cellular elem model
ASCII

DATASET UNSTRUCTURED_GRID
POINTS 36 float
-38.93107 -23.92409 62.95744 
-38.92778 23.92266 62.91296 
0.00280 -40.98712 66.28260 
-0.00000 -0.00000 77.57066 
-0.00280 40.98712 66.28260 
38.92778 -23.92266 62.91296 
38.93107 23.92409 62.95744 
-33.72046 -20.89883 54.87476 
-33.71837 20.89402 54.86961 
-0.00185 -35.57878 57.78873 
-0.00000 -0.00000 67.57252 
0.00185 35.57878 57.78873 
33.71837 -20.89402 54.86961 
33.72046 20.89883 54.87476 
-28.62332 -17.80976 46.69788 
-28.62375 17.80915 46.70814 
-0.00140 -30.18223 49.19196 
-0.00000 -0.00000 57.47676 
0.00140 30.18223 49.19196 
28.62375 -17.80915 46.70814 
28.62332 17.80976 46.69788 
-23.67812 -14.70884 38.42947 
-23.68076 14.71181 38.44651 
-0.00103 -25.09652 40.49571 
-0.00000 -0.00000 47.52352 
0.00103 25.09652 40.49571 
23.68076 -14.71181 38.44651 
23.67812 14.70884 38.42947 
-18.46700 -11.64823 30.27485 
-18.47575 11.65780 30.29729 
0.00041 -19.73892 31.86803 
-0.00000 0.00000 37.40807 
-0.00041 19.73892 31.86803 
18.47575 -11.65780 30.29729 
18.46700 11.64823 30.27485 
0.00000 0.00000 -0.10000 
CELLS 233 698
2 0 1
2 0 2
2 0 3
2 1 3
2 1 4
2 2 3
2 2 5
2 3 4
2 3 5
2 3 6
2 4 6
2 5 6
2 7 8
2 7 9
2 7 10
2 8 10
2 8 11
2 9 10
2 9 12
2 10 11
2 10 12
2 10 13
2 11 13
2 12 13
2 14 15
2 14 16
2 14 17
2 15 17
2 15 18
2 16 17
2 16 19
2 17 18
2 17 19
2 17 20
2 18 20
2 19 20
2 21 22
2 21 23
2 21 24
2 22 24
2 22 25
2 23 24
2 23 26
2 24 25
2 24 26
2 24 27
2 25 27
2 26 27
2 28 29
2 28 30
2 28 31
2 29 31
2 29 32
2 30 31
2 30 33
2 31 32
2 31 33
2 31 34
2 32 34
2 33 34
2 0 1
2 0 2
2 0 3
2 0 7
2 0 8
2 0 9
2 0 10
2 1 3
2 1 4
2 1 7
2 1 8
2 1 10
2 1 11
2 2 3
2 2 5
2 2 7
2 2 9
2 2 10
2 2 12
2 3 4
2 3 5
2 3 6
2 3 7
2 3 8
2 3 9
2 3 10
2 3 11
2 3 12
2 3 13
2 4 6
2 4 8
2 4 10
2 4 11
2 4 13
2 5 6
2 5 9
2 5 10
2 5 12
2 5 13
2 6 10
2 6 11
2 6 12
2 6 13
2 7 8
2 7 9
2 7 10
2 7 14
2 7 15
2 7 16
2 7 17
2 8 10
2 8 11
2 8 14
2 8 15
2 8 17
2 8 18
2 9 10
2 9 12
2 9 14
2 9 16
2 9 17
2 9 19
2 10 11
2 10 12
2 10 13
2 10 14
2 10 15
2 10 16
2 10 17
2 10 18
2 10 19
2 10 20
2 11 13
2 11 15
2 11 17
2 11 18
2 11 20
2 12 13
2 12 16
2 12 17
2 12 19
2 12 20
2 13 17
2 13 18
2 13 19
2 13 20
2 14 15
2 14 16
2 14 17
2 14 21
2 14 22
2 14 23
2 14 24
2 15 17
2 15 18
2 15 21
2 15 22
2 15 24
2 15 25
2 16 17
2 16 19
2 16 21
2 16 23
2 16 24
2 16 26
2 17 18
2 17 19
2 17 20
2 17 21
2 17 22
2 17 23
2 17 24
2 17 25
2 17 26
2 17 27
2 18 20
2 18 22
2 18 24
2 18 25
2 18 27
2 19 20
2 19 23
2 19 24
2 19 26
2 19 27
2 20 24
2 20 25
2 20 26
2 20 27
2 21 22
2 21 23
2 21 24
2 21 28
2 21 29
2 21 30
2 21 31
2 22 24
2 22 25
2 22 28
2 22 29
2 22 31
2 22 32
2 23 24
2 23 26
2 23 28
2 23 30
2 23 31
2 23 33
2 24 25
2 24 26
2 24 27
2 24 28
2 24 29
2 24 30
2 24 31
2 24 32
2 24 33
2 24 34
2 25 27
2 25 29
2 25 31
2 25 32
2 25 34
2 26 27
2 26 30
2 26 31
2 26 33
2 26 34
2 27 31
2 27 32
2 27 33
2 27 34
1 35
CELL_TYPES 233
3
3
3
3
3
3
3
3
3
3
3
3
3
3
3
3
3
3
3
3
3
3
3
3
3
3
3
3
3
3
3
3
3
3
3
3
3
3
3
3
3
3
3
3
3
3
3
3
3
3
3
3
3
3
3
3
3
3
3
3
3
3
3
3
3
3
3
3
3
3
3
3
3
3
3
3
3
3
3
3
3
3
3
3
3
3
3
3
3
3
3
3
3
3
3
3
3
3
3
3
3
3
3
3
3
3
3
3
3
3
3
3
3
3
3
3
3
3
3
3
3
3
3
3
3
3
3
3
3
3
3
3
3
3
3
3
3
3
3
3
3
3
3
3
3
3
3
3
3
3
3
3
3
3
3
3
3
3
3
3
3
3
3
3
3
3
3
3
3
3
3
3
3
3
3
3
3
3
3
3
3
3
3
3
3
3
3
3
3
3
3
3
3
3
3
3
3
3
3
3
3
3
3
3
3
3
3
3
3
3
3
3
3
3
3
3
3
3
3
3
3
3
3
3
3
3
3
3
3
3
3
3
1
CELL_DATA 233
SCALARS Strain double 1
LOOKUP_TABLE default
-0.00360
-0.01574
0.00780
0.00802
-0.01583
0.00244
-0.01583
0.00244
0.00802
0.00780
-0.01574
-0.00360
-0.00067
0.00198
0.01417
0.01411
0.00208
0.00572
0.00208
0.00572
0.01411
0.01417
0.00198
-0.00067
0.00174
0.01771
0.01642
0.01633
0.01779
0.01572
0.01779
0.01572
0.01633
0.01642
0.01771
0.00174
-0.00118
0.01126
0.01401
0.01396
0.01133
0.00215
0.01133
0.00215
0.01396
0.01401
0.01126
-0.00118
0.00132
0.01497
0.00526
0.00547
0.01505
-0.00392
0.01505
-0.00392
0.00547
0.00526
0.01497
0.00132
-0.00312
0.00459
-0.00046
0.00813
-0.00137
0.00255
0.00054
-0.00025
0.00450
-0.00151
0.00501
0.00056
0.00243
0.00163
0.00450
0.00043
0.00696
0.00362
0.00037
0.00163
-0.00025
-0.00046
-0.00430
-0.00433
-0.00370
-0.00019
-0.00370
-0.00433
-0.00430
0.00459
0.00037
0.00362
0.00696
0.00043
-0.00312
0.00243
0.00056
0.00501
-0.00151
0.00054
0.00255
-0.00137
0.00813
-0.00056
-0.00237
-0.00388
0.01185
0.00026
-0.00390
-0.00301
-0.00394
-0.00227
0.00018
0.01035
-0.00311
-0.00387
-0.00214
-0.00227
-0.00292
0.01502
0.00025
-0.00291
-0.00214
-0.00394
-0.00388
-0.00565
-0.00579
-0.00654
0.00958
-0.00654
-0.00579
-0.00565
-0.00237
-0.00291
0.00025
0.01502
-0.00292
-0.00056
-0.00387
-0.00311
0.01035
0.00018
-0.00301
-0.00390
0.00026
0.01185
-0.00047
-0.00736
-0.00681
0.01211
0.00022
-0.00547
-0.00545
-0.00690
-0.00728
0.00033
0.01134
-0.00546
-0.00532
-0.00681
-0.00728
-0.00272
0.00741
-0.00386
-0.00283
-0.00681
-0.00690
-0.00681
-0.00430
-0.00449
-0.00144
-0.00468
-0.00144
-0.00449
-0.00430
-0.00736
-0.00283
-0.00386
0.00741
-0.00272
-0.00047
-0.00532
-0.00546
0.01134
0.00033
-0.00545
-0.00547
0.00022
0.01211
-0.00118
-0.00422
-0.00458
0.01500
0.00179
-0.00560
-0.00481
-0.00463
-0.00415
0.00205
0.01405
-0.00465
-0.00537
0.00055
-0.00415
-0.00774
0.01558
0.00255
-0.00799
0.00055
-0.00463
-0.00458
-0.00725
-0.00740
-0.00111
0.01155
-0.00111
-0.00740
-0.00725
-0.00422
-0.00799
0.00255
0.01558
-0.00774
-0.00118
-0.00537
-0.00465
0.01405
0.00205
-0.00481
-0.00560
0.00179
0.01500
0.10000
