# vtk DataFile Version 3.0
Point representing Sub_cellular elem model
ASCII

DATASET UNSTRUCTURED_GRID
POINTS 36 float
-40.01938 -22.35484 64.61705 
-39.96330 22.49496 62.06613 
0.23700 -42.98354 71.45819 
-0.00000 0.00000 77.64352 
-0.23700 42.98354 71.45819 
39.96330 -22.49496 62.06613 
40.01938 22.35484 64.61705 
-31.77281 -20.82755 57.25677 
-31.61857 20.70650 56.44217 
-0.00870 -35.16378 62.06493 
0.00000 0.00000 67.64875 
0.00870 35.16378 62.06493 
31.61857 -20.70650 56.44217 
31.77281 20.82755 57.25677 
-25.52140 -17.62894 47.61722 
-25.42250 17.53579 47.41769 
-0.06293 -28.23817 50.96566 
0.00000 0.00000 55.83277 
0.06293 28.23817 50.96566 
25.42250 -17.53579 47.41769 
25.52140 17.62894 47.61722 
-21.19324 -14.39401 36.72972 
-21.14517 14.37297 36.71954 
-0.04733 -25.45198 39.60537 
0.00000 0.00000 45.76694 
0.04733 25.45198 39.60537 
21.14517 -14.37297 36.71954 
21.19324 14.39401 36.72972 
-12.46288 -11.63834 27.24454 
-12.44189 11.64822 27.30751 
-0.03944 -17.81597 28.58744 
0.00000 0.00000 32.65158 
0.03944 17.81597 28.58744 
12.44189 -11.64822 27.30751 
12.46288 11.63834 27.24454 
0.00000 0.00000 -0.10000 
CELLS 233 698
2 0 1
2 0 2
2 0 3
2 1 3
2 1 4
2 2 3
2 2 5
2 3 4
2 3 5
2 3 6
2 4 6
2 5 6
2 7 8
2 7 9
2 7 10
2 8 10
2 8 11
2 9 10
2 9 12
2 10 11
2 10 12
2 10 13
2 11 13
2 12 13
2 14 15
2 14 16
2 14 17
2 15 17
2 15 18
2 16 17
2 16 19
2 17 18
2 17 19
2 17 20
2 18 20
2 19 20
2 21 22
2 21 23
2 21 24
2 22 24
2 22 25
2 23 24
2 23 26
2 24 25
2 24 26
2 24 27
2 25 27
2 26 27
2 28 29
2 28 30
2 28 31
2 29 31
2 29 32
2 30 31
2 30 33
2 31 32
2 31 33
2 31 34
2 32 34
2 33 34
2 0 1
2 0 2
2 0 3
2 0 7
2 0 8
2 0 9
2 0 10
2 1 3
2 1 4
2 1 7
2 1 8
2 1 10
2 1 11
2 2 3
2 2 5
2 2 7
2 2 9
2 2 10
2 2 12
2 3 4
2 3 5
2 3 6
2 3 7
2 3 8
2 3 9
2 3 10
2 3 11
2 3 12
2 3 13
2 4 6
2 4 8
2 4 10
2 4 11
2 4 13
2 5 6
2 5 9
2 5 10
2 5 12
2 5 13
2 6 10
2 6 11
2 6 12
2 6 13
2 7 8
2 7 9
2 7 10
2 7 14
2 7 15
2 7 16
2 7 17
2 8 10
2 8 11
2 8 14
2 8 15
2 8 17
2 8 18
2 9 10
2 9 12
2 9 14
2 9 16
2 9 17
2 9 19
2 10 11
2 10 12
2 10 13
2 10 14
2 10 15
2 10 16
2 10 17
2 10 18
2 10 19
2 10 20
2 11 13
2 11 15
2 11 17
2 11 18
2 11 20
2 12 13
2 12 16
2 12 17
2 12 19
2 12 20
2 13 17
2 13 18
2 13 19
2 13 20
2 14 15
2 14 16
2 14 17
2 14 21
2 14 22
2 14 23
2 14 24
2 15 17
2 15 18
2 15 21
2 15 22
2 15 24
2 15 25
2 16 17
2 16 19
2 16 21
2 16 23
2 16 24
2 16 26
2 17 18
2 17 19
2 17 20
2 17 21
2 17 22
2 17 23
2 17 24
2 17 25
2 17 26
2 17 27
2 18 20
2 18 22
2 18 24
2 18 25
2 18 27
2 19 20
2 19 23
2 19 24
2 19 26
2 19 27
2 20 24
2 20 25
2 20 26
2 20 27
2 21 22
2 21 23
2 21 24
2 21 28
2 21 29
2 21 30
2 21 31
2 22 24
2 22 25
2 22 28
2 22 29
2 22 31
2 22 32
2 23 24
2 23 26
2 23 28
2 23 30
2 23 31
2 23 33
2 24 25
2 24 26
2 24 27
2 24 28
2 24 29
2 24 30
2 24 31
2 24 32
2 24 33
2 24 34
2 25 27
2 25 29
2 25 31
2 25 32
2 25 34
2 26 27
2 26 30
2 26 31
2 26 33
2 26 34
2 27 31
2 27 32
2 27 33
2 27 34
1 35
CELL_TYPES 233
3
3
3
3
3
3
3
3
3
3
3
3
3
3
3
3
3
3
3
3
3
3
3
3
3
3
3
3
3
3
3
3
3
3
3
3
3
3
3
3
3
3
3
3
3
3
3
3
3
3
3
3
3
3
3
3
3
3
3
3
3
3
3
3
3
3
3
3
3
3
3
3
3
3
3
3
3
3
3
3
3
3
3
3
3
3
3
3
3
3
3
3
3
3
3
3
3
3
3
3
3
3
3
3
3
3
3
3
3
3
3
3
3
3
3
3
3
3
3
3
3
3
3
3
3
3
3
3
3
3
3
3
3
3
3
3
3
3
3
3
3
3
3
3
3
3
3
3
3
3
3
3
3
3
3
3
3
3
3
3
3
3
3
3
3
3
3
3
3
3
3
3
3
3
3
3
3
3
3
3
3
3
3
3
3
3
3
3
3
3
3
3
3
3
3
3
3
3
3
3
3
3
3
3
3
3
3
3
3
3
3
3
3
3
3
3
3
3
3
3
3
3
3
3
3
3
3
3
3
3
3
3
1
CELL_DATA 233
SCALARS Strain double 1
LOOKUP_TABLE default
-0.02358
-0.18313
0.12835
0.12151
-0.18151
0.02003
-0.18151
0.02003
0.12151
0.12835
-0.18313
-0.02358
0.00046
0.05120
0.27779
0.27318
0.05178
0.12367
0.05178
0.12367
0.27318
0.27779
0.05120
0.00046
0.02658
0.41401
0.35056
0.34984
0.41435
0.32378
0.41435
0.32378
0.34984
0.35056
0.41401
0.02658
-0.00616
0.20075
0.26118
0.26053
0.20180
0.01669
0.20180
0.01669
0.26053
0.26118
0.20075
-0.00616
-0.01037
0.44599
0.14429
0.14346
0.45115
-0.04467
0.45115
-0.04467
0.14346
0.14429
0.44599
-0.01037
-0.06405
0.07786
-0.00712
0.11585
-0.02776
0.03008
0.00082
0.00909
0.07612
-0.03379
0.02206
0.00644
0.02624
0.02316
0.07612
0.01418
0.22247
0.05612
0.01103
0.02316
0.00909
-0.00712
-0.06072
-0.05591
-0.05872
-0.00052
-0.05872
-0.05591
-0.06072
0.07786
0.01103
0.05612
0.22247
0.01418
-0.06405
0.02624
0.00644
0.02206
-0.03379
0.00082
0.03008
-0.02776
0.11585
-0.00655
-0.04865
-0.05811
0.19261
0.00587
-0.06760
-0.04663
-0.05726
-0.04737
-0.00173
0.13967
-0.05207
-0.07167
-0.03716
-0.04737
-0.03959
0.30829
0.00395
-0.03756
-0.03716
-0.05726
-0.05811
-0.07405
-0.07414
-0.07795
0.18160
-0.07795
-0.07414
-0.07405
-0.04865
-0.03756
0.00395
0.30829
-0.03959
-0.00655
-0.07167
-0.05207
0.13967
-0.00173
-0.04663
-0.06760
0.00587
0.19261
-0.01320
-0.11836
-0.09957
0.21546
0.00536
-0.08301
-0.08357
-0.10176
-0.11566
0.00085
0.19477
-0.08786
-0.08414
-0.09071
-0.11566
-0.04445
0.16969
-0.05380
-0.04208
-0.09071
-0.10176
-0.09957
-0.05750
-0.05854
-0.00529
0.00658
-0.00529
-0.05854
-0.05750
-0.11836
-0.04208
-0.05380
0.16969
-0.04445
-0.01320
-0.08414
-0.08786
0.19477
0.00085
-0.08357
-0.08301
0.00536
0.21546
-0.02337
-0.07726
-0.07771
0.31827
0.03625
-0.09111
-0.07444
-0.07925
-0.07527
0.03513
0.31057
-0.07632
-0.09000
0.00536
-0.07527
-0.11542
0.34054
0.04613
-0.11541
0.00536
-0.07925
-0.07771
-0.10175
-0.10361
-0.01871
0.31154
-0.01871
-0.10361
-0.10175
-0.07726
-0.11541
0.04613
0.34054
-0.11542
-0.02337
-0.09000
-0.07632
0.31057
0.03513
-0.07444
-0.09111
0.03625
0.31827
0.10000
