# vtk DataFile Version 3.0
Point representing Sub_cellular elem model
ASCII

DATASET UNSTRUCTURED_GRID
POINTS 36 float
-39.09920 -23.79322 63.19277 
-39.08947 23.78839 63.04751 
0.00898 -41.26143 66.70738 
-0.00000 -0.00000 77.44337 
-0.00898 41.26143 66.70738 
39.08947 -23.78839 63.04751 
39.09920 23.79322 63.19277 
-33.52442 -20.88247 55.12773 
-33.51637 20.86730 55.10533 
-0.00560 -35.58657 58.22879 
-0.00000 -0.00000 67.44732 
0.00560 35.58657 58.22879 
33.51637 -20.86730 55.10533 
33.52442 20.88247 55.12773 
-28.25791 -17.79329 46.78706 
-28.25734 17.79059 46.81231 
-0.00473 -29.94869 49.44766 
-0.00000 -0.00000 57.16778 
0.00473 29.94869 49.44766 
28.25734 -17.79059 46.81231 
28.25791 17.79329 46.78706 
-23.40470 -14.67615 38.19508 
-23.41097 14.68409 38.23994 
-0.00362 -25.16427 40.41326 
-0.00000 -0.00000 47.26867 
0.00362 25.16427 40.41326 
23.41097 -14.68409 38.23994 
23.40470 14.67615 38.19508 
-17.82337 -11.66591 29.91110 
-17.84677 11.69180 29.97114 
0.00057 -19.63814 31.55254 
-0.00000 0.00000 36.93710 
-0.00057 19.63814 31.55254 
17.84677 -11.69180 29.97114 
17.82337 11.66591 29.91110 
0.00000 0.00000 -0.10000 
CELLS 233 698
2 0 1
2 0 2
2 0 3
2 1 3
2 1 4
2 2 3
2 2 5
2 3 4
2 3 5
2 3 6
2 4 6
2 5 6
2 7 8
2 7 9
2 7 10
2 8 10
2 8 11
2 9 10
2 9 12
2 10 11
2 10 12
2 10 13
2 11 13
2 12 13
2 14 15
2 14 16
2 14 17
2 15 17
2 15 18
2 16 17
2 16 19
2 17 18
2 17 19
2 17 20
2 18 20
2 19 20
2 21 22
2 21 23
2 21 24
2 22 24
2 22 25
2 23 24
2 23 26
2 24 25
2 24 26
2 24 27
2 25 27
2 26 27
2 28 29
2 28 30
2 28 31
2 29 31
2 29 32
2 30 31
2 30 33
2 31 32
2 31 33
2 31 34
2 32 34
2 33 34
2 0 1
2 0 2
2 0 3
2 0 7
2 0 8
2 0 9
2 0 10
2 1 3
2 1 4
2 1 7
2 1 8
2 1 10
2 1 11
2 2 3
2 2 5
2 2 7
2 2 9
2 2 10
2 2 12
2 3 4
2 3 5
2 3 6
2 3 7
2 3 8
2 3 9
2 3 10
2 3 11
2 3 12
2 3 13
2 4 6
2 4 8
2 4 10
2 4 11
2 4 13
2 5 6
2 5 9
2 5 10
2 5 12
2 5 13
2 6 10
2 6 11
2 6 12
2 6 13
2 7 8
2 7 9
2 7 10
2 7 14
2 7 15
2 7 16
2 7 17
2 8 10
2 8 11
2 8 14
2 8 15
2 8 17
2 8 18
2 9 10
2 9 12
2 9 14
2 9 16
2 9 17
2 9 19
2 10 11
2 10 12
2 10 13
2 10 14
2 10 15
2 10 16
2 10 17
2 10 18
2 10 19
2 10 20
2 11 13
2 11 15
2 11 17
2 11 18
2 11 20
2 12 13
2 12 16
2 12 17
2 12 19
2 12 20
2 13 17
2 13 18
2 13 19
2 13 20
2 14 15
2 14 16
2 14 17
2 14 21
2 14 22
2 14 23
2 14 24
2 15 17
2 15 18
2 15 21
2 15 22
2 15 24
2 15 25
2 16 17
2 16 19
2 16 21
2 16 23
2 16 24
2 16 26
2 17 18
2 17 19
2 17 20
2 17 21
2 17 22
2 17 23
2 17 24
2 17 25
2 17 26
2 17 27
2 18 20
2 18 22
2 18 24
2 18 25
2 18 27
2 19 20
2 19 23
2 19 24
2 19 26
2 19 27
2 20 24
2 20 25
2 20 26
2 20 27
2 21 22
2 21 23
2 21 24
2 21 28
2 21 29
2 21 30
2 21 31
2 22 24
2 22 25
2 22 28
2 22 29
2 22 31
2 22 32
2 23 24
2 23 26
2 23 28
2 23 30
2 23 31
2 23 33
2 24 25
2 24 26
2 24 27
2 24 28
2 24 29
2 24 30
2 24 31
2 24 32
2 24 33
2 24 34
2 25 27
2 25 29
2 25 31
2 25 32
2 25 34
2 26 27
2 26 30
2 26 31
2 26 33
2 26 34
2 27 31
2 27 32
2 27 33
2 27 34
1 35
CELL_TYPES 233
3
3
3
3
3
3
3
3
3
3
3
3
3
3
3
3
3
3
3
3
3
3
3
3
3
3
3
3
3
3
3
3
3
3
3
3
3
3
3
3
3
3
3
3
3
3
3
3
3
3
3
3
3
3
3
3
3
3
3
3
3
3
3
3
3
3
3
3
3
3
3
3
3
3
3
3
3
3
3
3
3
3
3
3
3
3
3
3
3
3
3
3
3
3
3
3
3
3
3
3
3
3
3
3
3
3
3
3
3
3
3
3
3
3
3
3
3
3
3
3
3
3
3
3
3
3
3
3
3
3
3
3
3
3
3
3
3
3
3
3
3
3
3
3
3
3
3
3
3
3
3
3
3
3
3
3
3
3
3
3
3
3
3
3
3
3
3
3
3
3
3
3
3
3
3
3
3
3
3
3
3
3
3
3
3
3
3
3
3
3
3
3
3
3
3
3
3
3
3
3
3
3
3
3
3
3
3
3
3
3
3
3
3
3
3
3
3
3
3
3
3
3
3
3
3
3
3
3
3
3
3
3
1
CELL_DATA 233
SCALARS Strain double 1
LOOKUP_TABLE default
-0.00996
-0.04173
0.02173
0.02244
-0.04198
0.00674
-0.04198
0.00674
0.02244
0.02173
-0.04173
-0.00996
-0.00189
0.00534
0.04016
0.03997
0.00564
0.01589
0.00564
0.01589
0.03997
0.04016
0.00534
-0.00189
0.00463
0.05062
0.04693
0.04665
0.05086
0.04498
0.05086
0.04498
0.04665
0.04693
0.05062
0.00463
-0.00323
0.03147
0.03942
0.03924
0.03167
0.00572
0.03167
0.00572
0.03924
0.03942
0.03147
-0.00323
0.00355
0.04316
0.01463
0.01523
0.04342
-0.01065
0.04342
-0.01065
0.01523
0.01463
0.04316
0.00355
-0.00864
0.01254
-0.00124
0.02272
-0.00378
0.00672
0.00141
-0.00055
0.01228
-0.00425
0.01326
0.00147
0.00637
0.00451
0.01228
0.00131
0.02025
0.01000
0.00113
0.00451
-0.00055
-0.00124
-0.01172
-0.01176
-0.01021
-0.00040
-0.01021
-0.01176
-0.01172
0.01254
0.00113
0.01000
0.02025
0.00131
-0.00864
0.00637
0.00147
0.01326
-0.00425
0.00141
0.00672
-0.00378
0.02272
-0.00159
-0.00663
-0.01059
0.03366
0.00074
-0.01084
-0.00822
-0.01077
-0.00633
0.00042
0.02906
-0.00856
-0.01079
-0.00588
-0.00633
-0.00777
0.04352
0.00088
-0.00773
-0.00588
-0.01077
-0.01059
-0.01527
-0.01565
-0.01770
0.02795
-0.01770
-0.01565
-0.01527
-0.00663
-0.00773
0.00088
0.04352
-0.00777
-0.00159
-0.01079
-0.00856
0.02906
0.00042
-0.00822
-0.01084
0.00074
0.03366
-0.00146
-0.02035
-0.01870
0.03485
0.00072
-0.01509
-0.01504
-0.01896
-0.02012
0.00097
0.03258
-0.01511
-0.01468
-0.01858
-0.02012
-0.00731
0.02230
-0.01047
-0.00759
-0.01858
-0.01896
-0.01870
-0.01161
-0.01213
-0.00375
-0.01009
-0.00375
-0.01213
-0.01161
-0.02035
-0.00759
-0.01047
0.02230
-0.00731
-0.00146
-0.01468
-0.01511
0.03258
0.00097
-0.01504
-0.01509
0.00072
0.03485
-0.00323
-0.01183
-0.01283
0.04326
0.00521
-0.01551
-0.01335
-0.01300
-0.01163
0.00592
0.04062
-0.01293
-0.01490
0.00129
-0.01163
-0.02071
0.04427
0.00721
-0.02141
0.00129
-0.01300
-0.01283
-0.01962
-0.02004
-0.00273
0.03316
-0.00273
-0.02004
-0.01962
-0.01183
-0.02141
0.00721
0.04427
-0.02071
-0.00323
-0.01490
-0.01293
0.04062
0.00592
-0.01335
-0.01551
0.00521
0.04326
0.10000
