# vtk DataFile Version 3.0
Point representing Sub_cellular elem model
ASCII

DATASET UNSTRUCTURED_GRID
POINTS 36 float
-39.14841 -23.75303 63.26206 
-39.13676 23.74710 63.08375 
0.01103 -41.34412 66.84256 
-0.00000 -0.00000 77.40868 
-0.01103 41.34412 66.84256 
39.13676 -23.74710 63.08375 
39.14841 23.75303 63.26206 
-33.46368 -20.87732 55.20582 
-33.45349 20.85892 55.17681 
-0.00671 -35.58740 58.36541 
-0.00000 -0.00000 67.41455 
0.00671 35.58740 58.36541 
33.45349 -20.85892 55.17681 
33.46368 20.87732 55.20582 
-28.14599 -17.78775 46.81565 
-28.14471 17.78425 46.84405 
-0.00583 -29.87624 49.52327 
-0.00000 -0.00000 57.07753 
0.00583 29.87624 49.52327 
28.14471 -17.78425 46.84405 
28.14599 17.78775 46.81565 
-23.32038 -14.66647 38.12599 
-23.32728 14.67562 38.17741 
-0.00451 -25.18339 40.38647 
-0.00000 -0.00000 47.19029 
0.00451 25.18339 40.38647 
23.32728 -14.67562 38.17741 
23.32038 14.66647 38.12599 
-17.62762 -11.67113 29.80075 
-17.65451 11.70099 29.86993 
0.00035 -19.60525 31.45103 
-0.00000 0.00000 36.79043 
-0.00035 19.60525 31.45103 
17.65451 -11.70099 29.86993 
17.62762 11.67113 29.80075 
0.00000 0.00000 -0.10000 
CELLS 233 698
2 0 1
2 0 2
2 0 3
2 1 3
2 1 4
2 2 3
2 2 5
2 3 4
2 3 5
2 3 6
2 4 6
2 5 6
2 7 8
2 7 9
2 7 10
2 8 10
2 8 11
2 9 10
2 9 12
2 10 11
2 10 12
2 10 13
2 11 13
2 12 13
2 14 15
2 14 16
2 14 17
2 15 17
2 15 18
2 16 17
2 16 19
2 17 18
2 17 19
2 17 20
2 18 20
2 19 20
2 21 22
2 21 23
2 21 24
2 22 24
2 22 25
2 23 24
2 23 26
2 24 25
2 24 26
2 24 27
2 25 27
2 26 27
2 28 29
2 28 30
2 28 31
2 29 31
2 29 32
2 30 31
2 30 33
2 31 32
2 31 33
2 31 34
2 32 34
2 33 34
2 0 1
2 0 2
2 0 3
2 0 7
2 0 8
2 0 9
2 0 10
2 1 3
2 1 4
2 1 7
2 1 8
2 1 10
2 1 11
2 2 3
2 2 5
2 2 7
2 2 9
2 2 10
2 2 12
2 3 4
2 3 5
2 3 6
2 3 7
2 3 8
2 3 9
2 3 10
2 3 11
2 3 12
2 3 13
2 4 6
2 4 8
2 4 10
2 4 11
2 4 13
2 5 6
2 5 9
2 5 10
2 5 12
2 5 13
2 6 10
2 6 11
2 6 12
2 6 13
2 7 8
2 7 9
2 7 10
2 7 14
2 7 15
2 7 16
2 7 17
2 8 10
2 8 11
2 8 14
2 8 15
2 8 17
2 8 18
2 9 10
2 9 12
2 9 14
2 9 16
2 9 17
2 9 19
2 10 11
2 10 12
2 10 13
2 10 14
2 10 15
2 10 16
2 10 17
2 10 18
2 10 19
2 10 20
2 11 13
2 11 15
2 11 17
2 11 18
2 11 20
2 12 13
2 12 16
2 12 17
2 12 19
2 12 20
2 13 17
2 13 18
2 13 19
2 13 20
2 14 15
2 14 16
2 14 17
2 14 21
2 14 22
2 14 23
2 14 24
2 15 17
2 15 18
2 15 21
2 15 22
2 15 24
2 15 25
2 16 17
2 16 19
2 16 21
2 16 23
2 16 24
2 16 26
2 17 18
2 17 19
2 17 20
2 17 21
2 17 22
2 17 23
2 17 24
2 17 25
2 17 26
2 17 27
2 18 20
2 18 22
2 18 24
2 18 25
2 18 27
2 19 20
2 19 23
2 19 24
2 19 26
2 19 27
2 20 24
2 20 25
2 20 26
2 20 27
2 21 22
2 21 23
2 21 24
2 21 28
2 21 29
2 21 30
2 21 31
2 22 24
2 22 25
2 22 28
2 22 29
2 22 31
2 22 32
2 23 24
2 23 26
2 23 28
2 23 30
2 23 31
2 23 33
2 24 25
2 24 26
2 24 27
2 24 28
2 24 29
2 24 30
2 24 31
2 24 32
2 24 33
2 24 34
2 25 27
2 25 29
2 25 31
2 25 32
2 25 34
2 26 27
2 26 30
2 26 31
2 26 33
2 26 34
2 27 31
2 27 32
2 27 33
2 27 34
1 35
CELL_TYPES 233
3
3
3
3
3
3
3
3
3
3
3
3
3
3
3
3
3
3
3
3
3
3
3
3
3
3
3
3
3
3
3
3
3
3
3
3
3
3
3
3
3
3
3
3
3
3
3
3
3
3
3
3
3
3
3
3
3
3
3
3
3
3
3
3
3
3
3
3
3
3
3
3
3
3
3
3
3
3
3
3
3
3
3
3
3
3
3
3
3
3
3
3
3
3
3
3
3
3
3
3
3
3
3
3
3
3
3
3
3
3
3
3
3
3
3
3
3
3
3
3
3
3
3
3
3
3
3
3
3
3
3
3
3
3
3
3
3
3
3
3
3
3
3
3
3
3
3
3
3
3
3
3
3
3
3
3
3
3
3
3
3
3
3
3
3
3
3
3
3
3
3
3
3
3
3
3
3
3
3
3
3
3
3
3
3
3
3
3
3
3
3
3
3
3
3
3
3
3
3
3
3
3
3
3
3
3
3
3
3
3
3
3
3
3
3
3
3
3
3
3
3
3
3
3
3
3
3
3
3
3
3
3
1
CELL_DATA 233
SCALARS Strain double 1
LOOKUP_TABLE default
-0.01190
-0.04931
0.02607
0.02694
-0.04960
0.00806
-0.04960
0.00806
0.02694
0.02607
-0.04931
-0.01190
-0.00227
0.00634
0.04843
0.04820
0.00669
0.01906
0.00669
0.01906
0.04820
0.04843
0.00634
-0.00227
0.00548
0.06121
0.05675
0.05642
0.06150
0.05443
0.06150
0.05443
0.05642
0.05675
0.06121
0.00548
-0.00385
0.03777
0.04744
0.04723
0.03803
0.00677
0.03803
0.00677
0.04723
0.04744
0.03777
-0.00385
0.00417
0.05238
0.01761
0.01831
0.05269
-0.01276
0.05269
-0.01276
0.01831
0.01761
0.05238
0.00417
-0.01034
0.01495
-0.00146
0.02707
-0.00452
0.00793
0.00166
-0.00062
0.01464
-0.00510
0.01568
0.00174
0.00751
0.00540
0.01464
0.00160
0.02471
0.01196
0.00139
0.00540
-0.00062
-0.00146
-0.01395
-0.01399
-0.01217
-0.00059
-0.01217
-0.01399
-0.01395
0.01495
0.00139
0.01196
0.02471
0.00160
-0.01034
0.00751
0.00174
0.01568
-0.00510
0.00166
0.00793
-0.00452
0.02707
-0.00191
-0.00795
-0.01262
0.04028
0.00087
-0.01297
-0.00979
-0.01284
-0.00761
0.00047
0.03475
-0.01021
-0.01293
-0.00699
-0.00761
-0.00924
0.05262
0.00111
-0.00917
-0.00699
-0.01284
-0.01262
-0.01816
-0.01860
-0.02101
0.03370
-0.02101
-0.01860
-0.01816
-0.00795
-0.00917
0.00111
0.05262
-0.00924
-0.00191
-0.01293
-0.01021
0.03475
0.00047
-0.00979
-0.01297
0.00087
0.04028
-0.00179
-0.02434
-0.02230
0.04182
0.00089
-0.01801
-0.01796
-0.02261
-0.02407
0.00116
0.03914
-0.01806
-0.01754
-0.02211
-0.02407
-0.00875
0.02715
-0.01247
-0.00907
-0.02211
-0.02261
-0.02230
-0.01382
-0.01442
-0.00438
-0.01128
-0.00438
-0.01442
-0.01382
-0.02434
-0.00907
-0.01247
0.02715
-0.00875
-0.00179
-0.01754
-0.01806
0.03914
0.00116
-0.01796
-0.01801
0.00089
0.04182
-0.00385
-0.01421
-0.01540
0.05210
0.00630
-0.01850
-0.01594
-0.01560
-0.01397
0.00712
0.04902
-0.01547
-0.01779
0.00148
-0.01397
-0.02460
0.05337
0.00862
-0.02540
0.00148
-0.01560
-0.01540
-0.02334
-0.02383
-0.00318
0.03999
-0.00318
-0.02383
-0.02334
-0.01421
-0.02540
0.00862
0.05337
-0.02460
-0.00385
-0.01779
-0.01547
0.04902
0.00712
-0.01594
-0.01850
0.00630
0.05210
0.10000
