# vtk DataFile Version 3.0
Point representing Sub_cellular elem model
ASCII

DATASET UNSTRUCTURED_GRID
POINTS 36 float
-39.36606 -23.23202 63.24404 
-39.42613 23.31294 62.85712 
0.04189 -41.64475 67.57792 
-0.00000 0.00000 78.24547 
-0.04189 41.64475 67.57792 
39.42613 -23.31294 62.85712 
39.36606 23.23202 63.24404 
-33.01957 -20.86966 55.43073 
-32.99896 20.84470 55.31230 
-0.00620 -35.39471 59.18681 
-0.00000 0.00000 67.94630 
0.00620 35.39471 59.18681 
32.99896 -20.84470 55.31230 
33.01957 20.86966 55.43073 
-27.46398 -17.72574 46.85808 
-27.44588 17.69507 46.83892 
-0.01600 -29.50547 50.04559 
-0.00000 0.00000 57.12454 
0.01600 29.50547 50.04559 
27.44588 -17.69507 46.83892 
27.46398 17.72574 46.85808 
-22.64461 -14.50246 37.57867 
-22.63739 14.48812 37.59105 
-0.01006 -25.36066 40.58427 
-0.00000 0.00000 47.62318 
0.01006 25.36066 40.58427 
22.63739 -14.48812 37.59105 
22.64461 14.50246 37.57867 
-14.96339 -11.57833 29.26471 
-14.97454 11.57522 29.28993 
-0.01163 -18.44514 31.00535 
-0.00000 0.00000 35.47296 
0.01163 18.44514 31.00535 
14.97454 -11.57522 29.28993 
14.96339 11.57833 29.26471 
0.00000 0.00000 -0.10000 
CELLS 233 698
2 0 1
2 0 2
2 0 3
2 1 3
2 1 4
2 2 3
2 2 5
2 3 4
2 3 5
2 3 6
2 4 6
2 5 6
2 7 8
2 7 9
2 7 10
2 8 10
2 8 11
2 9 10
2 9 12
2 10 11
2 10 12
2 10 13
2 11 13
2 12 13
2 14 15
2 14 16
2 14 17
2 15 17
2 15 18
2 16 17
2 16 19
2 17 18
2 17 19
2 17 20
2 18 20
2 19 20
2 21 22
2 21 23
2 21 24
2 22 24
2 22 25
2 23 24
2 23 26
2 24 25
2 24 26
2 24 27
2 25 27
2 26 27
2 28 29
2 28 30
2 28 31
2 29 31
2 29 32
2 30 31
2 30 33
2 31 32
2 31 33
2 31 34
2 32 34
2 33 34
2 0 1
2 0 2
2 0 3
2 0 7
2 0 8
2 0 9
2 0 10
2 1 3
2 1 4
2 1 7
2 1 8
2 1 10
2 1 11
2 2 3
2 2 5
2 2 7
2 2 9
2 2 10
2 2 12
2 3 4
2 3 5
2 3 6
2 3 7
2 3 8
2 3 9
2 3 10
2 3 11
2 3 12
2 3 13
2 4 6
2 4 8
2 4 10
2 4 11
2 4 13
2 5 6
2 5 9
2 5 10
2 5 12
2 5 13
2 6 10
2 6 11
2 6 12
2 6 13
2 7 8
2 7 9
2 7 10
2 7 14
2 7 15
2 7 16
2 7 17
2 8 10
2 8 11
2 8 14
2 8 15
2 8 17
2 8 18
2 9 10
2 9 12
2 9 14
2 9 16
2 9 17
2 9 19
2 10 11
2 10 12
2 10 13
2 10 14
2 10 15
2 10 16
2 10 17
2 10 18
2 10 19
2 10 20
2 11 13
2 11 15
2 11 17
2 11 18
2 11 20
2 12 13
2 12 16
2 12 17
2 12 19
2 12 20
2 13 17
2 13 18
2 13 19
2 13 20
2 14 15
2 14 16
2 14 17
2 14 21
2 14 22
2 14 23
2 14 24
2 15 17
2 15 18
2 15 21
2 15 22
2 15 24
2 15 25
2 16 17
2 16 19
2 16 21
2 16 23
2 16 24
2 16 26
2 17 18
2 17 19
2 17 20
2 17 21
2 17 22
2 17 23
2 17 24
2 17 25
2 17 26
2 17 27
2 18 20
2 18 22
2 18 24
2 18 25
2 18 27
2 19 20
2 19 23
2 19 24
2 19 26
2 19 27
2 20 24
2 20 25
2 20 26
2 20 27
2 21 22
2 21 23
2 21 24
2 21 28
2 21 29
2 21 30
2 21 31
2 22 24
2 22 25
2 22 28
2 22 29
2 22 31
2 22 32
2 23 24
2 23 26
2 23 28
2 23 30
2 23 31
2 23 33
2 24 25
2 24 26
2 24 27
2 24 28
2 24 29
2 24 30
2 24 31
2 24 32
2 24 33
2 24 34
2 25 27
2 25 29
2 25 31
2 25 32
2 25 34
2 26 27
2 26 30
2 26 31
2 26 33
2 26 34
2 27 31
2 27 32
2 27 33
2 27 34
1 35
CELL_TYPES 233
3
3
3
3
3
3
3
3
3
3
3
3
3
3
3
3
3
3
3
3
3
3
3
3
3
3
3
3
3
3
3
3
3
3
3
3
3
3
3
3
3
3
3
3
3
3
3
3
3
3
3
3
3
3
3
3
3
3
3
3
3
3
3
3
3
3
3
3
3
3
3
3
3
3
3
3
3
3
3
3
3
3
3
3
3
3
3
3
3
3
3
3
3
3
3
3
3
3
3
3
3
3
3
3
3
3
3
3
3
3
3
3
3
3
3
3
3
3
3
3
3
3
3
3
3
3
3
3
3
3
3
3
3
3
3
3
3
3
3
3
3
3
3
3
3
3
3
3
3
3
3
3
3
3
3
3
3
3
3
3
3
3
3
3
3
3
3
3
3
3
3
3
3
3
3
3
3
3
3
3
3
3
3
3
3
3
3
3
3
3
3
3
3
3
3
3
3
3
3
3
3
3
3
3
3
3
3
3
3
3
3
3
3
3
3
3
3
3
3
3
3
3
3
3
3
3
3
3
3
3
3
3
1
CELL_DATA 233
SCALARS Strain double 1
LOOKUP_TABLE default
0.01771
-0.06593
0.02254
0.01567
-0.06528
-0.00312
-0.06528
-0.00312
0.01567
0.02254
-0.06593
0.01771
0.00581
0.03058
0.06977
0.07046
0.02948
0.03089
0.02948
0.03089
0.07046
0.06977
0.03058
0.00581
0.01006
0.12492
0.10738
0.10916
0.12321
0.09798
0.12321
0.09798
0.10916
0.10738
0.12492
0.01006
0.00156
0.07447
0.08798
0.08880
0.07348
0.01109
0.07348
0.01109
0.08880
0.08798
0.07447
0.00156
-0.01603
0.16547
0.09430
0.09445
0.16442
-0.00800
0.16442
-0.00800
0.09445
0.09430
0.16547
-0.01603
-0.03021
0.02990
0.00234
0.03395
-0.01454
0.01312
0.00107
0.00672
0.02954
-0.01404
0.02139
0.00397
0.01334
0.01285
0.02954
0.00081
0.04631
0.01926
-0.00007
0.01285
0.00672
0.00234
-0.01451
-0.01378
-0.01615
0.02992
-0.01615
-0.01378
-0.01451
0.02990
-0.00007
0.01926
0.04631
0.00081
-0.03021
0.01334
0.00397
0.02139
-0.01404
0.00107
0.01312
-0.01454
0.03395
-0.00243
-0.01936
-0.01909
0.06882
0.00062
-0.02907
-0.01951
-0.01892
-0.01896
-0.00011
0.06092
-0.02015
-0.02910
-0.01395
-0.01896
-0.01882
0.08741
-0.00327
-0.01832
-0.01395
-0.01892
-0.01909
-0.02450
-0.02491
-0.02980
0.08218
-0.02980
-0.02491
-0.02450
-0.01936
-0.01832
-0.00327
0.08741
-0.01882
-0.00243
-0.02910
-0.02015
0.06092
-0.00011
-0.01951
-0.02907
0.00062
0.06882
-0.00603
-0.04679
-0.03856
0.09418
-0.00120
-0.03846
-0.03570
-0.03925
-0.04594
-0.00182
0.09054
-0.03662
-0.03827
-0.03714
-0.04594
-0.01548
0.03293
-0.02441
-0.01479
-0.03714
-0.03925
-0.03856
-0.01956
-0.02010
-0.00223
-0.04986
-0.00223
-0.02010
-0.01956
-0.04679
-0.01479
-0.02441
0.03293
-0.01548
-0.00603
-0.03827
-0.03662
0.09054
-0.00182
-0.03570
-0.03846
-0.00120
0.09418
-0.01578
-0.02934
-0.02547
0.16908
0.01391
-0.05257
-0.03765
-0.02606
-0.02872
0.01397
0.16668
-0.03811
-0.05174
0.01043
-0.02872
-0.07721
0.18144
0.02574
-0.07682
0.01043
-0.02606
-0.02547
-0.05942
-0.05987
-0.01565
0.21502
-0.01565
-0.05987
-0.05942
-0.02934
-0.07682
0.02574
0.18144
-0.07721
-0.01578
-0.05174
-0.03811
0.16668
0.01397
-0.03765
-0.05257
0.01391
0.16908
0.10000
