# vtk DataFile Version 3.0
Point representing Sub_cellular elem model
ASCII

DATASET UNSTRUCTURED_GRID
POINTS 36 float
-39.45446 -23.47944 63.69219 
-39.42833 23.46590 63.24850 
0.02767 -41.88560 67.84622 
-0.00000 0.00000 77.22554 
-0.02767 41.88560 67.84622 
39.42833 -23.46590 63.24850 
39.45446 23.47944 63.69219 
-33.04049 -20.84188 55.74175 
-33.01155 20.80014 55.64834 
-0.01369 -35.57740 59.32151 
-0.00000 0.00000 67.26261 
0.01369 35.57740 59.32151 
33.01155 -20.80014 55.64834 
33.04049 20.84188 55.74175 
-27.38341 -17.74462 47.02449 
-27.37306 17.73347 47.05817 
-0.01422 -29.37563 50.00907 
-0.00000 0.00000 56.52103 
0.01422 29.37563 50.00907 
27.37306 -17.73347 47.05817 
27.38341 17.74462 47.02449 
-22.73944 -14.60387 37.68531 
-22.74548 14.61821 37.76252 
-0.01156 -25.29402 40.18866 
-0.00000 0.00000 46.65383 
0.01156 25.29402 40.18866 
22.74548 -14.61821 37.76252 
22.73944 14.60387 37.68531 
-16.31036 -11.70288 29.05662 
-16.35074 11.74978 29.16535 
-0.00376 -19.35885 30.70932 
0.00000 0.00000 35.76434 
0.00376 19.35885 30.70932 
16.35074 -11.74978 29.16535 
16.31036 11.70288 29.05662 
0.00000 0.00000 -0.10000 
CELLS 233 698
2 0 1
2 0 2
2 0 3
2 1 3
2 1 4
2 2 3
2 2 5
2 3 4
2 3 5
2 3 6
2 4 6
2 5 6
2 7 8
2 7 9
2 7 10
2 8 10
2 8 11
2 9 10
2 9 12
2 10 11
2 10 12
2 10 13
2 11 13
2 12 13
2 14 15
2 14 16
2 14 17
2 15 17
2 15 18
2 16 17
2 16 19
2 17 18
2 17 19
2 17 20
2 18 20
2 19 20
2 21 22
2 21 23
2 21 24
2 22 24
2 22 25
2 23 24
2 23 26
2 24 25
2 24 26
2 24 27
2 25 27
2 26 27
2 28 29
2 28 30
2 28 31
2 29 31
2 29 32
2 30 31
2 30 33
2 31 32
2 31 33
2 31 34
2 32 34
2 33 34
2 0 1
2 0 2
2 0 3
2 0 7
2 0 8
2 0 9
2 0 10
2 1 3
2 1 4
2 1 7
2 1 8
2 1 10
2 1 11
2 2 3
2 2 5
2 2 7
2 2 9
2 2 10
2 2 12
2 3 4
2 3 5
2 3 6
2 3 7
2 3 8
2 3 9
2 3 10
2 3 11
2 3 12
2 3 13
2 4 6
2 4 8
2 4 10
2 4 11
2 4 13
2 5 6
2 5 9
2 5 10
2 5 12
2 5 13
2 6 10
2 6 11
2 6 12
2 6 13
2 7 8
2 7 9
2 7 10
2 7 14
2 7 15
2 7 16
2 7 17
2 8 10
2 8 11
2 8 14
2 8 15
2 8 17
2 8 18
2 9 10
2 9 12
2 9 14
2 9 16
2 9 17
2 9 19
2 10 11
2 10 12
2 10 13
2 10 14
2 10 15
2 10 16
2 10 17
2 10 18
2 10 19
2 10 20
2 11 13
2 11 15
2 11 17
2 11 18
2 11 20
2 12 13
2 12 16
2 12 17
2 12 19
2 12 20
2 13 17
2 13 18
2 13 19
2 13 20
2 14 15
2 14 16
2 14 17
2 14 21
2 14 22
2 14 23
2 14 24
2 15 17
2 15 18
2 15 21
2 15 22
2 15 24
2 15 25
2 16 17
2 16 19
2 16 21
2 16 23
2 16 24
2 16 26
2 17 18
2 17 19
2 17 20
2 17 21
2 17 22
2 17 23
2 17 24
2 17 25
2 17 26
2 17 27
2 18 20
2 18 22
2 18 24
2 18 25
2 18 27
2 19 20
2 19 23
2 19 24
2 19 26
2 19 27
2 20 24
2 20 25
2 20 26
2 20 27
2 21 22
2 21 23
2 21 24
2 21 28
2 21 29
2 21 30
2 21 31
2 22 24
2 22 25
2 22 28
2 22 29
2 22 31
2 22 32
2 23 24
2 23 26
2 23 28
2 23 30
2 23 31
2 23 33
2 24 25
2 24 26
2 24 27
2 24 28
2 24 29
2 24 30
2 24 31
2 24 32
2 24 33
2 24 34
2 25 27
2 25 29
2 25 31
2 25 32
2 25 34
2 26 27
2 26 30
2 26 31
2 26 33
2 26 34
2 27 31
2 27 32
2 27 33
2 27 34
1 35
CELL_TYPES 233
3
3
3
3
3
3
3
3
3
3
3
3
3
3
3
3
3
3
3
3
3
3
3
3
3
3
3
3
3
3
3
3
3
3
3
3
3
3
3
3
3
3
3
3
3
3
3
3
3
3
3
3
3
3
3
3
3
3
3
3
3
3
3
3
3
3
3
3
3
3
3
3
3
3
3
3
3
3
3
3
3
3
3
3
3
3
3
3
3
3
3
3
3
3
3
3
3
3
3
3
3
3
3
3
3
3
3
3
3
3
3
3
3
3
3
3
3
3
3
3
3
3
3
3
3
3
3
3
3
3
3
3
3
3
3
3
3
3
3
3
3
3
3
3
3
3
3
3
3
3
3
3
3
3
3
3
3
3
3
3
3
3
3
3
3
3
3
3
3
3
3
3
3
3
3
3
3
3
3
3
3
3
3
3
3
3
3
3
3
3
3
3
3
3
3
3
3
3
3
3
3
3
3
3
3
3
3
3
3
3
3
3
3
3
3
3
3
3
3
3
3
3
3
3
3
3
3
3
3
3
3
3
1
CELL_DATA 233
SCALARS Strain double 1
LOOKUP_TABLE default
-0.02508
-0.09651
0.05647
0.05866
-0.09699
0.01689
-0.09699
0.01689
0.05866
0.05647
-0.09651
-0.02508
-0.00492
0.01282
0.10878
0.10829
0.01351
0.04138
0.01351
0.04138
0.10829
0.10878
0.01282
-0.00492
0.01084
0.14036
0.13018
0.12939
0.14103
0.12536
0.14103
0.12536
0.12939
0.13018
0.14036
0.01084
-0.00792
0.08220
0.10512
0.10466
0.08275
0.01339
0.08275
0.01339
0.10466
0.10512
0.08220
-0.00792
0.00764
0.12356
0.03932
0.04045
0.12442
-0.02787
0.12442
-0.02787
0.04045
0.03932
0.12356
0.00764
-0.02186
0.03100
-0.00273
0.05501
-0.00957
0.01532
0.00323
-0.00067
0.03045
-0.01114
0.02977
0.00339
0.01436
0.01129
0.03045
0.00399
0.06050
0.02521
0.00353
0.01129
-0.00067
-0.00273
-0.02875
-0.02866
-0.02524
-0.00371
-0.02524
-0.02866
-0.02875
0.03100
0.00353
0.02521
0.06050
0.00399
-0.02186
0.01436
0.00339
0.02977
-0.01114
0.00323
0.01532
-0.00957
0.05501
-0.00416
-0.01722
-0.02602
0.08437
0.00171
-0.02760
-0.02017
-0.02645
-0.01655
0.00050
0.07232
-0.02129
-0.02776
-0.01421
-0.01655
-0.01874
0.11886
0.00327
-0.01854
-0.01421
-0.02645
-0.02602
-0.03712
-0.03788
-0.04226
0.07416
-0.04226
-0.03788
-0.03712
-0.01722
-0.01854
0.00327
0.11886
-0.01874
-0.00416
-0.02776
-0.02129
0.07232
0.00050
-0.02017
-0.02760
0.00171
0.08437
-0.00443
-0.05159
-0.04636
0.08927
0.00216
-0.03758
-0.03759
-0.04702
-0.05103
0.00233
0.08410
-0.03801
-0.03683
-0.04520
-0.05103
-0.01882
0.06348
-0.02567
-0.01924
-0.04520
-0.04702
-0.04636
-0.02847
-0.02946
-0.00780
-0.01328
-0.00780
-0.02946
-0.02847
-0.05159
-0.01924
-0.02567
0.06348
-0.01882
-0.00443
-0.03683
-0.03801
0.08410
0.00233
-0.03759
-0.03758
0.00216
0.08927
-0.00792
-0.03098
-0.03331
0.11447
0.01412
-0.03842
-0.03336
-0.03372
-0.03049
0.01543
0.10921
-0.03270
-0.03714
0.00228
-0.03049
-0.04984
0.11841
0.01810
-0.05117
0.00228
-0.03372
-0.03331
-0.04755
-0.04848
-0.00562
0.08895
-0.00562
-0.04848
-0.04755
-0.03098
-0.05117
0.01810
0.11841
-0.04984
-0.00792
-0.03714
-0.03270
0.10921
0.01543
-0.03336
-0.03842
0.01412
0.11447
0.10000
