# vtk DataFile Version 3.0
Point representing Sub_cellular elem model
ASCII

DATASET UNSTRUCTURED_GRID
POINTS 36 float
-39.43623 -23.49708 63.66687 
-39.41120 23.48402 63.24310 
0.02640 -41.85193 67.77605 
-0.00000 0.00000 77.23469 
-0.02640 41.85193 67.77605 
39.41120 -23.48402 63.24310 
39.43623 23.49708 63.66687 
-33.06840 -20.84413 55.70698 
-33.04092 20.80401 55.61892 
-0.01327 -35.57872 59.25816 
-0.00000 0.00000 67.26868 
0.01327 35.57872 59.25816 
33.04092 -20.80401 55.61892 
33.06840 20.84413 55.70698 
-27.43276 -17.74766 47.01028 
-27.42321 17.73713 47.04443 
-0.01362 -29.40824 49.97900 
-0.00000 0.00000 56.55386 
0.01362 29.40824 49.97900 
27.42321 -17.73713 47.04443 
27.43276 17.74766 47.01028 
-22.77735 -14.60776 37.71234 
-22.78369 14.62192 37.78872 
-0.01106 -25.28786 40.20215 
-0.00000 0.00000 46.68860 
0.01106 25.28786 40.20215 
22.78369 -14.62192 37.78872 
22.77735 14.60776 37.71234 
-16.39477 -11.70106 29.10449 
-16.43475 11.74730 29.21165 
-0.00337 -19.37588 30.75962 
0.00000 0.00000 35.83203 
0.00337 19.37588 30.75962 
16.43475 -11.74730 29.21165 
16.39477 11.70106 29.10449 
0.00000 0.00000 -0.10000 
CELLS 233 698
2 0 1
2 0 2
2 0 3
2 1 3
2 1 4
2 2 3
2 2 5
2 3 4
2 3 5
2 3 6
2 4 6
2 5 6
2 7 8
2 7 9
2 7 10
2 8 10
2 8 11
2 9 10
2 9 12
2 10 11
2 10 12
2 10 13
2 11 13
2 12 13
2 14 15
2 14 16
2 14 17
2 15 17
2 15 18
2 16 17
2 16 19
2 17 18
2 17 19
2 17 20
2 18 20
2 19 20
2 21 22
2 21 23
2 21 24
2 22 24
2 22 25
2 23 24
2 23 26
2 24 25
2 24 26
2 24 27
2 25 27
2 26 27
2 28 29
2 28 30
2 28 31
2 29 31
2 29 32
2 30 31
2 30 33
2 31 32
2 31 33
2 31 34
2 32 34
2 33 34
2 0 1
2 0 2
2 0 3
2 0 7
2 0 8
2 0 9
2 0 10
2 1 3
2 1 4
2 1 7
2 1 8
2 1 10
2 1 11
2 2 3
2 2 5
2 2 7
2 2 9
2 2 10
2 2 12
2 3 4
2 3 5
2 3 6
2 3 7
2 3 8
2 3 9
2 3 10
2 3 11
2 3 12
2 3 13
2 4 6
2 4 8
2 4 10
2 4 11
2 4 13
2 5 6
2 5 9
2 5 10
2 5 12
2 5 13
2 6 10
2 6 11
2 6 12
2 6 13
2 7 8
2 7 9
2 7 10
2 7 14
2 7 15
2 7 16
2 7 17
2 8 10
2 8 11
2 8 14
2 8 15
2 8 17
2 8 18
2 9 10
2 9 12
2 9 14
2 9 16
2 9 17
2 9 19
2 10 11
2 10 12
2 10 13
2 10 14
2 10 15
2 10 16
2 10 17
2 10 18
2 10 19
2 10 20
2 11 13
2 11 15
2 11 17
2 11 18
2 11 20
2 12 13
2 12 16
2 12 17
2 12 19
2 12 20
2 13 17
2 13 18
2 13 19
2 13 20
2 14 15
2 14 16
2 14 17
2 14 21
2 14 22
2 14 23
2 14 24
2 15 17
2 15 18
2 15 21
2 15 22
2 15 24
2 15 25
2 16 17
2 16 19
2 16 21
2 16 23
2 16 24
2 16 26
2 17 18
2 17 19
2 17 20
2 17 21
2 17 22
2 17 23
2 17 24
2 17 25
2 17 26
2 17 27
2 18 20
2 18 22
2 18 24
2 18 25
2 18 27
2 19 20
2 19 23
2 19 24
2 19 26
2 19 27
2 20 24
2 20 25
2 20 26
2 20 27
2 21 22
2 21 23
2 21 24
2 21 28
2 21 29
2 21 30
2 21 31
2 22 24
2 22 25
2 22 28
2 22 29
2 22 31
2 22 32
2 23 24
2 23 26
2 23 28
2 23 30
2 23 31
2 23 33
2 24 25
2 24 26
2 24 27
2 24 28
2 24 29
2 24 30
2 24 31
2 24 32
2 24 33
2 24 34
2 25 27
2 25 29
2 25 31
2 25 32
2 25 34
2 26 27
2 26 30
2 26 31
2 26 33
2 26 34
2 27 31
2 27 32
2 27 33
2 27 34
1 35
CELL_TYPES 233
3
3
3
3
3
3
3
3
3
3
3
3
3
3
3
3
3
3
3
3
3
3
3
3
3
3
3
3
3
3
3
3
3
3
3
3
3
3
3
3
3
3
3
3
3
3
3
3
3
3
3
3
3
3
3
3
3
3
3
3
3
3
3
3
3
3
3
3
3
3
3
3
3
3
3
3
3
3
3
3
3
3
3
3
3
3
3
3
3
3
3
3
3
3
3
3
3
3
3
3
3
3
3
3
3
3
3
3
3
3
3
3
3
3
3
3
3
3
3
3
3
3
3
3
3
3
3
3
3
3
3
3
3
3
3
3
3
3
3
3
3
3
3
3
3
3
3
3
3
3
3
3
3
3
3
3
3
3
3
3
3
3
3
3
3
3
3
3
3
3
3
3
3
3
3
3
3
3
3
3
3
3
3
3
3
3
3
3
3
3
3
3
3
3
3
3
3
3
3
3
3
3
3
3
3
3
3
3
3
3
3
3
3
3
3
3
3
3
3
3
3
3
3
3
3
3
3
3
3
3
3
3
1
CELL_DATA 233
SCALARS Strain double 1
LOOKUP_TABLE default
-0.02424
-0.09368
0.05446
0.05655
-0.09415
0.01633
-0.09415
0.01633
0.05655
0.05446
-0.09368
-0.02424
-0.00475
0.01242
0.10466
0.10418
0.01309
0.03990
0.01309
0.03990
0.10418
0.10466
0.01242
-0.00475
0.01051
0.13484
0.12506
0.12431
0.13548
0.12040
0.13548
0.12040
0.12431
0.12506
0.13484
0.01051
-0.00766
0.07925
0.10123
0.10078
0.07978
0.01299
0.07978
0.01299
0.10078
0.10123
0.07925
-0.00766
0.00745
0.11847
0.03784
0.03895
0.11928
-0.02686
0.11928
-0.02686
0.03895
0.03784
0.11847
0.00745
-0.02112
0.02997
-0.00266
0.05331
-0.00925
0.01488
0.00314
-0.00069
0.02944
-0.01074
0.02903
0.00330
0.01396
0.01092
0.02944
0.00381
0.05787
0.02436
0.00337
0.01092
-0.00069
-0.00266
-0.02782
-0.02774
-0.02441
-0.00340
-0.02441
-0.02774
-0.02782
0.02997
0.00337
0.02436
0.05787
0.00381
-0.02112
0.01396
0.00330
0.02903
-0.01074
0.00314
0.01488
-0.00925
0.05331
-0.00402
-0.01661
-0.02517
0.08157
0.00165
-0.02665
-0.01951
-0.02560
-0.01596
0.00051
0.06998
-0.02058
-0.02678
-0.01377
-0.01596
-0.01815
0.11435
0.00310
-0.01796
-0.01377
-0.02560
-0.02517
-0.03593
-0.03667
-0.04096
0.07148
-0.04096
-0.03667
-0.03593
-0.01661
-0.01796
0.00310
0.11435
-0.01815
-0.00402
-0.02678
-0.02058
0.06998
0.00051
-0.01951
-0.02665
0.00165
0.08157
-0.00424
-0.04982
-0.04483
0.08620
0.00207
-0.03633
-0.03634
-0.04546
-0.04928
0.00226
0.08119
-0.03673
-0.03559
-0.04376
-0.04928
-0.01816
0.06096
-0.02484
-0.01858
-0.04376
-0.04546
-0.04483
-0.02755
-0.02852
-0.00763
-0.01347
-0.00763
-0.02852
-0.02755
-0.04982
-0.01858
-0.02484
0.06096
-0.01816
-0.00424
-0.03559
-0.03673
0.08119
0.00226
-0.03634
-0.03633
0.00207
0.08620
-0.00766
-0.02986
-0.03213
0.11033
0.01359
-0.03716
-0.03225
-0.03252
-0.02939
0.01488
0.10517
-0.03159
-0.03591
0.00226
-0.02939
-0.04828
0.11406
0.01749
-0.04959
0.00226
-0.03252
-0.03213
-0.04604
-0.04695
-0.00549
0.08566
-0.00549
-0.04695
-0.04604
-0.02986
-0.04959
0.01749
0.11406
-0.04828
-0.00766
-0.03591
-0.03159
0.10517
0.01488
-0.03225
-0.03716
0.01359
0.11033
0.10000
