# vtk DataFile Version 3.0
Point representing Sub_cellular elem model
ASCII

DATASET UNSTRUCTURED_GRID
POINTS 36 float
-39.28944 -23.30587 63.10722 
-39.34955 23.38141 62.80588 
0.03366 -41.50830 67.36130 
-0.00000 0.00000 78.32787 
-0.03366 41.50830 67.36130 
39.34955 -23.38141 62.80588 
39.28944 23.30587 63.10722 
-33.11409 -20.87580 55.28736 
-33.09689 20.85486 55.19210 
-0.00518 -35.41137 58.97565 
-0.00000 0.00000 68.02120 
0.00518 35.41137 58.97565 
33.09689 -20.85486 55.19210 
33.11409 20.87580 55.28736 
-27.62265 -17.73282 46.80558 
-27.60638 17.70376 46.78506 
-0.01395 -29.61098 49.96533 
-0.00000 0.00000 57.26478 
0.01395 29.61098 49.96533 
27.60638 -17.70376 46.78506 
27.62265 17.73282 46.80558 
-22.76373 -14.51287 37.65787 
-22.75561 14.49671 37.66068 
-0.00816 -25.34512 40.66108 
-0.00000 0.00000 47.77547 
0.00816 25.34512 40.66108 
22.75561 -14.49671 37.66068 
22.76373 14.51287 37.65787 
-15.17628 -11.57325 29.43131 
-15.18289 11.56389 29.44193 
-0.01161 -18.49066 31.19093 
-0.00000 0.00000 35.69556 
0.01161 18.49066 31.19093 
15.18289 -11.56389 29.44193 
15.17628 11.57325 29.43131 
0.00000 0.00000 -0.10000 
CELLS 233 698
2 0 1
2 0 2
2 0 3
2 1 3
2 1 4
2 2 3
2 2 5
2 3 4
2 3 5
2 3 6
2 4 6
2 5 6
2 7 8
2 7 9
2 7 10
2 8 10
2 8 11
2 9 10
2 9 12
2 10 11
2 10 12
2 10 13
2 11 13
2 12 13
2 14 15
2 14 16
2 14 17
2 15 17
2 15 18
2 16 17
2 16 19
2 17 18
2 17 19
2 17 20
2 18 20
2 19 20
2 21 22
2 21 23
2 21 24
2 22 24
2 22 25
2 23 24
2 23 26
2 24 25
2 24 26
2 24 27
2 25 27
2 26 27
2 28 29
2 28 30
2 28 31
2 29 31
2 29 32
2 30 31
2 30 33
2 31 32
2 31 33
2 31 34
2 32 34
2 33 34
2 0 1
2 0 2
2 0 3
2 0 7
2 0 8
2 0 9
2 0 10
2 1 3
2 1 4
2 1 7
2 1 8
2 1 10
2 1 11
2 2 3
2 2 5
2 2 7
2 2 9
2 2 10
2 2 12
2 3 4
2 3 5
2 3 6
2 3 7
2 3 8
2 3 9
2 3 10
2 3 11
2 3 12
2 3 13
2 4 6
2 4 8
2 4 10
2 4 11
2 4 13
2 5 6
2 5 9
2 5 10
2 5 12
2 5 13
2 6 10
2 6 11
2 6 12
2 6 13
2 7 8
2 7 9
2 7 10
2 7 14
2 7 15
2 7 16
2 7 17
2 8 10
2 8 11
2 8 14
2 8 15
2 8 17
2 8 18
2 9 10
2 9 12
2 9 14
2 9 16
2 9 17
2 9 19
2 10 11
2 10 12
2 10 13
2 10 14
2 10 15
2 10 16
2 10 17
2 10 18
2 10 19
2 10 20
2 11 13
2 11 15
2 11 17
2 11 18
2 11 20
2 12 13
2 12 16
2 12 17
2 12 19
2 12 20
2 13 17
2 13 18
2 13 19
2 13 20
2 14 15
2 14 16
2 14 17
2 14 21
2 14 22
2 14 23
2 14 24
2 15 17
2 15 18
2 15 21
2 15 22
2 15 24
2 15 25
2 16 17
2 16 19
2 16 21
2 16 23
2 16 24
2 16 26
2 17 18
2 17 19
2 17 20
2 17 21
2 17 22
2 17 23
2 17 24
2 17 25
2 17 26
2 17 27
2 18 20
2 18 22
2 18 24
2 18 25
2 18 27
2 19 20
2 19 23
2 19 24
2 19 26
2 19 27
2 20 24
2 20 25
2 20 26
2 20 27
2 21 22
2 21 23
2 21 24
2 21 28
2 21 29
2 21 30
2 21 31
2 22 24
2 22 25
2 22 28
2 22 29
2 22 31
2 22 32
2 23 24
2 23 26
2 23 28
2 23 30
2 23 31
2 23 33
2 24 25
2 24 26
2 24 27
2 24 28
2 24 29
2 24 30
2 24 31
2 24 32
2 24 33
2 24 34
2 25 27
2 25 29
2 25 31
2 25 32
2 25 34
2 26 27
2 26 30
2 26 31
2 26 33
2 26 34
2 27 31
2 27 32
2 27 33
2 27 34
1 35
CELL_TYPES 233
3
3
3
3
3
3
3
3
3
3
3
3
3
3
3
3
3
3
3
3
3
3
3
3
3
3
3
3
3
3
3
3
3
3
3
3
3
3
3
3
3
3
3
3
3
3
3
3
3
3
3
3
3
3
3
3
3
3
3
3
3
3
3
3
3
3
3
3
3
3
3
3
3
3
3
3
3
3
3
3
3
3
3
3
3
3
3
3
3
3
3
3
3
3
3
3
3
3
3
3
3
3
3
3
3
3
3
3
3
3
3
3
3
3
3
3
3
3
3
3
3
3
3
3
3
3
3
3
3
3
3
3
3
3
3
3
3
3
3
3
3
3
3
3
3
3
3
3
3
3
3
3
3
3
3
3
3
3
3
3
3
3
3
3
3
3
3
3
3
3
3
3
3
3
3
3
3
3
3
3
3
3
3
3
3
3
3
3
3
3
3
3
3
3
3
3
3
3
3
3
3
3
3
3
3
3
3
3
3
3
3
3
3
3
3
3
3
3
3
3
3
3
3
3
3
3
3
3
3
3
3
3
1
CELL_DATA 233
SCALARS Strain double 1
LOOKUP_TABLE default
0.02133
-0.05343
0.01440
0.00787
-0.05285
-0.00554
-0.05285
-0.00554
0.00787
0.01440
-0.05343
0.02133
0.00631
0.02861
0.05558
0.05658
0.02735
0.02405
0.02735
0.02405
0.05658
0.05558
0.02861
0.00631
0.00848
0.10634
0.09146
0.09335
0.10459
0.08317
0.10459
0.08317
0.09335
0.09146
0.10634
0.00848
0.00222
0.06477
0.07555
0.07644
0.06366
0.01037
0.06366
0.01037
0.07644
0.07555
0.06477
0.00222
-0.01673
0.14859
0.09056
0.09053
0.14732
-0.00525
0.14732
-0.00525
0.09053
0.09056
0.14859
-0.01673
-0.02726
0.02583
0.00321
0.02562
-0.01335
0.01113
0.00093
0.00700
0.02565
-0.01264
0.01709
0.00361
0.01152
0.01152
0.02565
0.00022
0.03679
0.01601
-0.00050
0.01152
0.00700
0.00321
-0.01045
-0.00988
-0.01237
0.03067
-0.01237
-0.00988
-0.01045
0.02583
-0.00050
0.01601
0.03679
0.00022
-0.02726
0.01152
0.00361
0.01709
-0.01264
0.00093
0.01113
-0.01335
0.02562
-0.00204
-0.01708
-0.01559
0.05818
0.00027
-0.02605
-0.01710
-0.01547
-0.01676
-0.00027
0.05239
-0.01762
-0.02602
-0.01163
-0.01676
-0.01671
0.07159
-0.00333
-0.01623
-0.01163
-0.01547
-0.01559
-0.01988
-0.02022
-0.02500
0.07564
-0.02500
-0.02022
-0.01988
-0.01708
-0.01623
-0.00333
0.07159
-0.01671
-0.00204
-0.02602
-0.01762
0.05239
-0.00027
-0.01710
-0.02605
0.00027
0.05818
-0.00559
-0.04100
-0.03325
0.08470
-0.00157
-0.03458
-0.03149
-0.03386
-0.04023
-0.00218
0.08198
-0.03234
-0.03447
-0.03223
-0.04023
-0.01305
0.02355
-0.02154
-0.01232
-0.03223
-0.03386
-0.03325
-0.01597
-0.01639
-0.00151
-0.05107
-0.00151
-0.01639
-0.01597
-0.04100
-0.01232
-0.02154
0.02355
-0.01305
-0.00559
-0.03447
-0.03234
0.08198
-0.00218
-0.03149
-0.03458
-0.00157
0.08470
-0.01514
-0.02561
-0.02123
0.15710
0.01227
-0.04901
-0.03427
-0.02176
-0.02508
0.01217
0.15541
-0.03481
-0.04830
0.01063
-0.02508
-0.07368
0.16905
0.02401
-0.07307
0.01063
-0.02176
-0.02123
-0.05552
-0.05580
-0.01519
0.20799
-0.01519
-0.05580
-0.05552
-0.02561
-0.07307
0.02401
0.16905
-0.07368
-0.01514
-0.04830
-0.03481
0.15541
0.01217
-0.03427
-0.04901
0.01227
0.15710
0.10000
