# vtk DataFile Version 3.0
Point representing Sub_cellular elem model
ASCII

DATASET UNSTRUCTURED_GRID
POINTS 36 float
-39.86904 -22.99550 64.22373 
-39.76957 22.97036 62.81897 
0.09532 -42.70090 70.37711 
-0.00000 0.00000 77.08742 
-0.09532 42.70090 70.37711 
39.76957 -22.97036 62.81897 
39.86904 22.99550 64.22373 
-32.21027 -20.79914 56.73689 
-32.10849 20.69151 56.35015 
-0.02361 -35.52472 61.26231 
-0.00000 0.00000 67.30411 
0.02361 35.52472 61.26231 
32.10849 -20.69151 56.35015 
32.21027 20.79914 56.73689 
-25.98467 -17.65530 47.47176 
-25.93367 17.61060 47.43164 
-0.03790 -28.46387 50.82245 
-0.00000 0.00000 55.78463 
0.03790 28.46387 50.82245 
25.93367 -17.61060 47.43164 
25.98467 17.65530 47.47176 
-21.64899 -14.50262 36.99725 
-21.63209 14.51272 37.05866 
-0.03063 -25.41641 39.78041 
-0.00000 0.00000 45.67217 
0.03063 25.41641 39.78041 
21.63209 -14.51272 37.05866 
21.64899 14.50262 36.99725 
-13.96410 -11.74015 27.70834 
-13.99185 11.78694 27.82335 
-0.02316 -18.82421 29.19080 
-0.00000 0.00000 33.78746 
0.02316 18.82421 29.19080 
13.99185 -11.78694 27.82335 
13.96410 11.74015 27.70834 
0.00000 0.00000 -0.10000 
CELLS 233 698
2 0 1
2 0 2
2 0 3
2 1 3
2 1 4
2 2 3
2 2 5
2 3 4
2 3 5
2 3 6
2 4 6
2 5 6
2 7 8
2 7 9
2 7 10
2 8 10
2 8 11
2 9 10
2 9 12
2 10 11
2 10 12
2 10 13
2 11 13
2 12 13
2 14 15
2 14 16
2 14 17
2 15 17
2 15 18
2 16 17
2 16 19
2 17 18
2 17 19
2 17 20
2 18 20
2 19 20
2 21 22
2 21 23
2 21 24
2 22 24
2 22 25
2 23 24
2 23 26
2 24 25
2 24 26
2 24 27
2 25 27
2 26 27
2 28 29
2 28 30
2 28 31
2 29 31
2 29 32
2 30 31
2 30 33
2 31 32
2 31 33
2 31 34
2 32 34
2 33 34
2 0 1
2 0 2
2 0 3
2 0 7
2 0 8
2 0 9
2 0 10
2 1 3
2 1 4
2 1 7
2 1 8
2 1 10
2 1 11
2 2 3
2 2 5
2 2 7
2 2 9
2 2 10
2 2 12
2 3 4
2 3 5
2 3 6
2 3 7
2 3 8
2 3 9
2 3 10
2 3 11
2 3 12
2 3 13
2 4 6
2 4 8
2 4 10
2 4 11
2 4 13
2 5 6
2 5 9
2 5 10
2 5 12
2 5 13
2 6 10
2 6 11
2 6 12
2 6 13
2 7 8
2 7 9
2 7 10
2 7 14
2 7 15
2 7 16
2 7 17
2 8 10
2 8 11
2 8 14
2 8 15
2 8 17
2 8 18
2 9 10
2 9 12
2 9 14
2 9 16
2 9 17
2 9 19
2 10 11
2 10 12
2 10 13
2 10 14
2 10 15
2 10 16
2 10 17
2 10 18
2 10 19
2 10 20
2 11 13
2 11 15
2 11 17
2 11 18
2 11 20
2 12 13
2 12 16
2 12 17
2 12 19
2 12 20
2 13 17
2 13 18
2 13 19
2 13 20
2 14 15
2 14 16
2 14 17
2 14 21
2 14 22
2 14 23
2 14 24
2 15 17
2 15 18
2 15 21
2 15 22
2 15 24
2 15 25
2 16 17
2 16 19
2 16 21
2 16 23
2 16 24
2 16 26
2 17 18
2 17 19
2 17 20
2 17 21
2 17 22
2 17 23
2 17 24
2 17 25
2 17 26
2 17 27
2 18 20
2 18 22
2 18 24
2 18 25
2 18 27
2 19 20
2 19 23
2 19 24
2 19 26
2 19 27
2 20 24
2 20 25
2 20 26
2 20 27
2 21 22
2 21 23
2 21 24
2 21 28
2 21 29
2 21 30
2 21 31
2 22 24
2 22 25
2 22 28
2 22 29
2 22 31
2 22 32
2 23 24
2 23 26
2 23 28
2 23 30
2 23 31
2 23 33
2 24 25
2 24 26
2 24 27
2 24 28
2 24 29
2 24 30
2 24 31
2 24 32
2 24 33
2 24 34
2 25 27
2 25 29
2 25 31
2 25 32
2 25 34
2 26 27
2 26 30
2 26 31
2 26 33
2 26 34
2 27 31
2 27 32
2 27 33
2 27 34
1 35
CELL_TYPES 233
3
3
3
3
3
3
3
3
3
3
3
3
3
3
3
3
3
3
3
3
3
3
3
3
3
3
3
3
3
3
3
3
3
3
3
3
3
3
3
3
3
3
3
3
3
3
3
3
3
3
3
3
3
3
3
3
3
3
3
3
3
3
3
3
3
3
3
3
3
3
3
3
3
3
3
3
3
3
3
3
3
3
3
3
3
3
3
3
3
3
3
3
3
3
3
3
3
3
3
3
3
3
3
3
3
3
3
3
3
3
3
3
3
3
3
3
3
3
3
3
3
3
3
3
3
3
3
3
3
3
3
3
3
3
3
3
3
3
3
3
3
3
3
3
3
3
3
3
3
3
3
3
3
3
3
3
3
3
3
3
3
3
3
3
3
3
3
3
3
3
3
3
3
3
3
3
3
3
3
3
3
3
3
3
3
3
3
3
3
3
3
3
3
3
3
3
3
3
3
3
3
3
3
3
3
3
3
3
3
3
3
3
3
3
3
3
3
3
3
3
3
3
3
3
3
3
3
3
3
3
3
3
1
CELL_DATA 233
SCALARS Strain double 1
LOOKUP_TABLE default
-0.04787
-0.16514
0.11495
0.12202
-0.16573
0.02923
-0.16573
0.02923
0.12202
0.11495
-0.16514
-0.04787
-0.00917
0.02290
0.23857
0.23752
0.02423
0.08508
0.02423
0.08508
0.23752
0.23857
0.02290
-0.00917
0.01900
0.32357
0.29937
0.29718
0.32565
0.29015
0.32565
0.29015
0.29718
0.29937
0.32357
0.01900
-0.01494
0.16930
0.22543
0.22421
0.17063
0.02305
0.17063
0.02305
0.22421
0.22543
0.16930
-0.01494
0.01084
0.30612
0.08526
0.08598
0.30898
-0.05848
0.30898
-0.05848
0.08598
0.08526
0.30612
0.01084
-0.04186
0.05979
-0.00432
0.09331
-0.01826
0.02482
0.00492
0.00199
0.05904
-0.02332
0.02825
0.00529
0.02193
0.01841
0.05904
0.01188
0.16014
0.04777
0.01087
0.01841
0.00199
-0.00432
-0.05434
-0.05312
-0.04820
-0.02167
-0.04820
-0.05312
-0.05434
0.05979
0.01087
0.04777
0.16014
0.01188
-0.04186
0.02193
0.00529
0.02825
-0.02332
0.00492
0.02482
-0.01826
0.09331
-0.00774
-0.03502
-0.04890
0.15967
0.00350
-0.05549
-0.03819
-0.04971
-0.03376
-0.00105
0.12765
-0.04199
-0.05734
-0.02552
-0.03376
-0.03288
0.26034
0.01050
-0.03185
-0.02552
-0.04971
-0.04890
-0.06834
-0.06923
-0.07534
0.15195
-0.07534
-0.06923
-0.06834
-0.03502
-0.03185
0.01050
0.26034
-0.03288
-0.00774
-0.05734
-0.04199
0.12765
-0.00105
-0.03819
-0.05549
0.00350
0.15967
-0.01038
-0.10174
-0.08810
0.17666
0.00542
-0.07201
-0.07197
-0.08963
-0.10032
0.00383
0.16490
-0.07401
-0.07165
-0.08314
-0.10032
-0.03749
0.14548
-0.04677
-0.03717
-0.08314
-0.08963
-0.08810
-0.05257
-0.05383
-0.01021
0.01125
-0.01021
-0.05383
-0.05257
-0.10174
-0.03717
-0.04677
0.14548
-0.03749
-0.01038
-0.07165
-0.07401
0.16490
0.00383
-0.07197
-0.07201
0.00542
0.17666
-0.01494
-0.06416
-0.06762
0.23683
0.03032
-0.07245
-0.06328
-0.06855
-0.06309
0.03125
0.22921
-0.06330
-0.07063
0.00164
-0.06309
-0.08988
0.24739
0.03536
-0.09122
0.00164
-0.06855
-0.06762
-0.08652
-0.08808
-0.00800
0.18847
-0.00800
-0.08808
-0.08652
-0.06416
-0.09122
0.03536
0.24739
-0.08988
-0.01494
-0.07063
-0.06330
0.22921
0.03125
-0.06328
-0.07245
0.03032
0.23683
0.10000
