# vtk DataFile Version 3.0
Point representing Sub_cellular elem model
ASCII

DATASET UNSTRUCTURED_GRID
POINTS 36 float
-39.93859 -22.51605 64.40183 
-39.94704 22.64620 62.57789 
0.16934 -42.80543 70.42616 
0.00000 0.00000 77.71793 
-0.16934 42.80543 70.42616 
39.94704 -22.64620 62.57789 
39.93859 22.51605 64.40183 
-32.02796 -20.82259 56.88557 
-31.92462 20.73359 56.30856 
-0.01004 -35.20417 61.44888 
0.00000 0.00000 67.61596 
0.01004 35.20417 61.44888 
31.92462 -20.73359 56.30856 
32.02796 20.82259 56.88557 
-25.89311 -17.64461 47.44964 
-25.82300 17.57415 47.32497 
-0.04781 -28.47081 50.78771 
0.00000 0.00000 56.01273 
0.04781 28.47081 50.78771 
25.82300 -17.57415 47.32497 
25.89311 17.64461 47.44964 
-21.46949 -14.41148 36.87201 
-21.43816 14.39692 36.88665 
-0.03649 -25.44648 39.79392 
0.00000 0.00000 46.11337 
0.03649 25.44648 39.79392 
21.43816 -14.39692 36.88665 
21.46949 14.41148 36.87201 
-12.92471 -11.62761 27.62358 
-12.92322 11.64323 27.69633 
-0.02920 -17.94569 29.06094 
0.00000 0.00000 33.19415 
0.02920 17.94569 29.06094 
12.92322 -11.64323 27.69633 
12.92471 11.62761 27.62358 
0.00000 0.00000 -0.10000 
CELLS 233 698
2 0 1
2 0 2
2 0 3
2 1 3
2 1 4
2 2 3
2 2 5
2 3 4
2 3 5
2 3 6
2 4 6
2 5 6
2 7 8
2 7 9
2 7 10
2 8 10
2 8 11
2 9 10
2 9 12
2 10 11
2 10 12
2 10 13
2 11 13
2 12 13
2 14 15
2 14 16
2 14 17
2 15 17
2 15 18
2 16 17
2 16 19
2 17 18
2 17 19
2 17 20
2 18 20
2 19 20
2 21 22
2 21 23
2 21 24
2 22 24
2 22 25
2 23 24
2 23 26
2 24 25
2 24 26
2 24 27
2 25 27
2 26 27
2 28 29
2 28 30
2 28 31
2 29 31
2 29 32
2 30 31
2 30 33
2 31 32
2 31 33
2 31 34
2 32 34
2 33 34
2 0 1
2 0 2
2 0 3
2 0 7
2 0 8
2 0 9
2 0 10
2 1 3
2 1 4
2 1 7
2 1 8
2 1 10
2 1 11
2 2 3
2 2 5
2 2 7
2 2 9
2 2 10
2 2 12
2 3 4
2 3 5
2 3 6
2 3 7
2 3 8
2 3 9
2 3 10
2 3 11
2 3 12
2 3 13
2 4 6
2 4 8
2 4 10
2 4 11
2 4 13
2 5 6
2 5 9
2 5 10
2 5 12
2 5 13
2 6 10
2 6 11
2 6 12
2 6 13
2 7 8
2 7 9
2 7 10
2 7 14
2 7 15
2 7 16
2 7 17
2 8 10
2 8 11
2 8 14
2 8 15
2 8 17
2 8 18
2 9 10
2 9 12
2 9 14
2 9 16
2 9 17
2 9 19
2 10 11
2 10 12
2 10 13
2 10 14
2 10 15
2 10 16
2 10 17
2 10 18
2 10 19
2 10 20
2 11 13
2 11 15
2 11 17
2 11 18
2 11 20
2 12 13
2 12 16
2 12 17
2 12 19
2 12 20
2 13 17
2 13 18
2 13 19
2 13 20
2 14 15
2 14 16
2 14 17
2 14 21
2 14 22
2 14 23
2 14 24
2 15 17
2 15 18
2 15 21
2 15 22
2 15 24
2 15 25
2 16 17
2 16 19
2 16 21
2 16 23
2 16 24
2 16 26
2 17 18
2 17 19
2 17 20
2 17 21
2 17 22
2 17 23
2 17 24
2 17 25
2 17 26
2 17 27
2 18 20
2 18 22
2 18 24
2 18 25
2 18 27
2 19 20
2 19 23
2 19 24
2 19 26
2 19 27
2 20 24
2 20 25
2 20 26
2 20 27
2 21 22
2 21 23
2 21 24
2 21 28
2 21 29
2 21 30
2 21 31
2 22 24
2 22 25
2 22 28
2 22 29
2 22 31
2 22 32
2 23 24
2 23 26
2 23 28
2 23 30
2 23 31
2 23 33
2 24 25
2 24 26
2 24 27
2 24 28
2 24 29
2 24 30
2 24 31
2 24 32
2 24 33
2 24 34
2 25 27
2 25 29
2 25 31
2 25 32
2 25 34
2 26 27
2 26 30
2 26 31
2 26 33
2 26 34
2 27 31
2 27 32
2 27 33
2 27 34
1 35
CELL_TYPES 233
3
3
3
3
3
3
3
3
3
3
3
3
3
3
3
3
3
3
3
3
3
3
3
3
3
3
3
3
3
3
3
3
3
3
3
3
3
3
3
3
3
3
3
3
3
3
3
3
3
3
3
3
3
3
3
3
3
3
3
3
3
3
3
3
3
3
3
3
3
3
3
3
3
3
3
3
3
3
3
3
3
3
3
3
3
3
3
3
3
3
3
3
3
3
3
3
3
3
3
3
3
3
3
3
3
3
3
3
3
3
3
3
3
3
3
3
3
3
3
3
3
3
3
3
3
3
3
3
3
3
3
3
3
3
3
3
3
3
3
3
3
3
3
3
3
3
3
3
3
3
3
3
3
3
3
3
3
3
3
3
3
3
3
3
3
3
3
3
3
3
3
3
3
3
3
3
3
3
3
3
3
3
3
3
3
3
3
3
3
3
3
3
3
3
3
3
3
3
3
3
3
3
3
3
3
3
3
3
3
3
3
3
3
3
3
3
3
3
3
3
3
3
3
3
3
3
3
3
3
3
3
3
1
CELL_DATA 233
SCALARS Strain double 1
LOOKUP_TABLE default
-0.01651
-0.16540
0.10757
0.09939
-0.16401
0.01754
-0.16401
0.01754
0.09939
0.10757
-0.16540
-0.01651
0.00111
0.04788
0.23284
0.22955
0.04810
0.10469
0.04810
0.10469
0.22955
0.23284
0.04788
0.00111
0.02374
0.34850
0.29621
0.29636
0.34795
0.27343
0.34795
0.27343
0.29636
0.29621
0.34850
0.02374
-0.00473
0.17575
0.22490
0.22471
0.17618
0.01599
0.17618
0.01599
0.22471
0.22490
0.17575
-0.00473
-0.01104
0.37900
0.13408
0.13403
0.38225
-0.03728
0.38225
-0.03728
0.13403
0.13408
0.37900
-0.01104
-0.05829
0.06847
-0.00528
0.10426
-0.02567
0.02791
0.00127
0.00739
0.06682
-0.02948
0.03596
0.00638
0.02544
0.02306
0.06682
0.01006
0.17645
0.04989
0.00757
0.02306
0.00739
-0.00528
-0.05206
-0.04855
-0.05086
0.01020
-0.05086
-0.04855
-0.05206
0.06847
0.00757
0.04989
0.17645
0.01006
-0.05829
0.02544
0.00638
0.03596
-0.02948
0.00127
0.02791
-0.02567
0.10426
-0.00612
-0.04282
-0.05108
0.16949
0.00441
-0.05984
-0.04176
-0.05036
-0.04174
-0.00076
0.13100
-0.04537
-0.06229
-0.03348
-0.04174
-0.03665
0.26095
0.00141
-0.03526
-0.03348
-0.05036
-0.05108
-0.06557
-0.06593
-0.07025
0.16032
-0.07025
-0.06593
-0.06557
-0.04282
-0.03526
0.00141
0.26095
-0.03665
-0.00612
-0.06229
-0.04537
0.13100
-0.00076
-0.04176
-0.05984
0.00441
0.16949
-0.01169
-0.10452
-0.08849
0.19125
0.00365
-0.07491
-0.07505
-0.09020
-0.10245
0.00071
0.17592
-0.07808
-0.07529
-0.08145
-0.10245
-0.03913
0.14021
-0.04922
-0.03757
-0.08145
-0.09020
-0.08849
-0.05118
-0.05225
-0.00559
-0.01006
-0.00559
-0.05225
-0.05118
-0.10452
-0.03757
-0.04922
0.14021
-0.03913
-0.01169
-0.07529
-0.07808
0.17592
0.00071
-0.07505
-0.07491
0.00365
0.19125
-0.02196
-0.06774
-0.06776
0.28957
0.03164
-0.08448
-0.06815
-0.06902
-0.06614
0.03132
0.28278
-0.06928
-0.08320
0.00659
-0.06614
-0.10884
0.30942
0.04230
-0.10915
0.00659
-0.06902
-0.06776
-0.09450
-0.09616
-0.01848
0.29192
-0.01848
-0.09616
-0.09450
-0.06774
-0.10915
0.04230
0.30942
-0.10884
-0.02196
-0.08320
-0.06928
0.28278
0.03132
-0.06815
-0.08448
0.03164
0.28957
0.10000
