# vtk DataFile Version 3.0
Point representing Sub_cellular elem model
ASCII

DATASET UNSTRUCTURED_GRID
POINTS 36 float
-39.20351 -23.70692 63.33976 
-39.18966 23.69971 63.12206 
0.01347 -41.43808 67.00088 
-0.00000 -0.00000 77.37140 
-0.01347 41.43808 67.00088 
39.18966 -23.69971 63.12206 
39.20351 23.70692 63.33976 
-33.39361 -20.87136 55.29563 
-33.38078 20.84922 55.25824 
-0.00796 -35.58752 58.52317 
-0.00000 -0.00000 67.38024 
0.00796 35.58752 58.52317 
33.38078 -20.84922 55.25824 
33.39361 20.87136 55.29563 
-28.01762 -17.78112 46.84914 
-28.01532 17.77661 46.88036 
-0.00713 -29.79271 49.60850 
-0.00000 -0.00000 56.97663 
0.00713 29.79271 49.60850 
28.01532 -17.77661 46.88036 
28.01762 17.78112 46.84914 
-23.22337 -14.65553 38.04823 
-23.23073 14.66593 38.10619 
-0.00558 -25.20440 40.35495 
-0.00000 -0.00000 47.10025 
0.00558 25.20440 40.35495 
23.23073 -14.66593 38.10619 
23.22337 14.65553 38.04823 
-17.40391 -11.67696 29.67468 
-17.43427 11.71085 29.75313 
-0.00003 -19.56641 31.33207 
-0.00000 -0.00000 36.62091 
0.00003 19.56641 31.33207 
17.43427 -11.71085 29.75313 
17.40391 11.67696 29.67468 
0.00000 0.00000 -0.10000 
CELLS 233 698
2 0 1
2 0 2
2 0 3
2 1 3
2 1 4
2 2 3
2 2 5
2 3 4
2 3 5
2 3 6
2 4 6
2 5 6
2 7 8
2 7 9
2 7 10
2 8 10
2 8 11
2 9 10
2 9 12
2 10 11
2 10 12
2 10 13
2 11 13
2 12 13
2 14 15
2 14 16
2 14 17
2 15 17
2 15 18
2 16 17
2 16 19
2 17 18
2 17 19
2 17 20
2 18 20
2 19 20
2 21 22
2 21 23
2 21 24
2 22 24
2 22 25
2 23 24
2 23 26
2 24 25
2 24 26
2 24 27
2 25 27
2 26 27
2 28 29
2 28 30
2 28 31
2 29 31
2 29 32
2 30 31
2 30 33
2 31 32
2 31 33
2 31 34
2 32 34
2 33 34
2 0 1
2 0 2
2 0 3
2 0 7
2 0 8
2 0 9
2 0 10
2 1 3
2 1 4
2 1 7
2 1 8
2 1 10
2 1 11
2 2 3
2 2 5
2 2 7
2 2 9
2 2 10
2 2 12
2 3 4
2 3 5
2 3 6
2 3 7
2 3 8
2 3 9
2 3 10
2 3 11
2 3 12
2 3 13
2 4 6
2 4 8
2 4 10
2 4 11
2 4 13
2 5 6
2 5 9
2 5 10
2 5 12
2 5 13
2 6 10
2 6 11
2 6 12
2 6 13
2 7 8
2 7 9
2 7 10
2 7 14
2 7 15
2 7 16
2 7 17
2 8 10
2 8 11
2 8 14
2 8 15
2 8 17
2 8 18
2 9 10
2 9 12
2 9 14
2 9 16
2 9 17
2 9 19
2 10 11
2 10 12
2 10 13
2 10 14
2 10 15
2 10 16
2 10 17
2 10 18
2 10 19
2 10 20
2 11 13
2 11 15
2 11 17
2 11 18
2 11 20
2 12 13
2 12 16
2 12 17
2 12 19
2 12 20
2 13 17
2 13 18
2 13 19
2 13 20
2 14 15
2 14 16
2 14 17
2 14 21
2 14 22
2 14 23
2 14 24
2 15 17
2 15 18
2 15 21
2 15 22
2 15 24
2 15 25
2 16 17
2 16 19
2 16 21
2 16 23
2 16 24
2 16 26
2 17 18
2 17 19
2 17 20
2 17 21
2 17 22
2 17 23
2 17 24
2 17 25
2 17 26
2 17 27
2 18 20
2 18 22
2 18 24
2 18 25
2 18 27
2 19 20
2 19 23
2 19 24
2 19 26
2 19 27
2 20 24
2 20 25
2 20 26
2 20 27
2 21 22
2 21 23
2 21 24
2 21 28
2 21 29
2 21 30
2 21 31
2 22 24
2 22 25
2 22 28
2 22 29
2 22 31
2 22 32
2 23 24
2 23 26
2 23 28
2 23 30
2 23 31
2 23 33
2 24 25
2 24 26
2 24 27
2 24 28
2 24 29
2 24 30
2 24 31
2 24 32
2 24 33
2 24 34
2 25 27
2 25 29
2 25 31
2 25 32
2 25 34
2 26 27
2 26 30
2 26 31
2 26 33
2 26 34
2 27 31
2 27 32
2 27 33
2 27 34
1 35
CELL_TYPES 233
3
3
3
3
3
3
3
3
3
3
3
3
3
3
3
3
3
3
3
3
3
3
3
3
3
3
3
3
3
3
3
3
3
3
3
3
3
3
3
3
3
3
3
3
3
3
3
3
3
3
3
3
3
3
3
3
3
3
3
3
3
3
3
3
3
3
3
3
3
3
3
3
3
3
3
3
3
3
3
3
3
3
3
3
3
3
3
3
3
3
3
3
3
3
3
3
3
3
3
3
3
3
3
3
3
3
3
3
3
3
3
3
3
3
3
3
3
3
3
3
3
3
3
3
3
3
3
3
3
3
3
3
3
3
3
3
3
3
3
3
3
3
3
3
3
3
3
3
3
3
3
3
3
3
3
3
3
3
3
3
3
3
3
3
3
3
3
3
3
3
3
3
3
3
3
3
3
3
3
3
3
3
3
3
3
3
3
3
3
3
3
3
3
3
3
3
3
3
3
3
3
3
3
3
3
3
3
3
3
3
3
3
3
3
3
3
3
3
3
3
3
3
3
3
3
3
3
3
3
3
3
3
1
CELL_DATA 233
SCALARS Strain double 1
LOOKUP_TABLE default
-0.01413
-0.05779
0.03109
0.03215
-0.05812
0.00957
-0.05812
0.00957
0.03215
0.03109
-0.05779
-0.01413
-0.00272
0.00748
0.05809
0.05782
0.00789
0.02274
0.00789
0.02274
0.05782
0.05809
0.00748
-0.00272
0.00644
0.07367
0.06831
0.06790
0.07401
0.06556
0.07401
0.06556
0.06790
0.06831
0.07367
0.00644
-0.00455
0.04508
0.05677
0.05652
0.04538
0.00795
0.04538
0.00795
0.05652
0.05677
0.04508
-0.00455
0.00484
0.06331
0.02110
0.02190
0.06370
-0.01522
0.06370
-0.01522
0.02190
0.02110
0.06331
0.00484
-0.01228
0.01769
-0.00170
0.03200
-0.00537
0.00928
0.00195
-0.00068
0.01733
-0.00610
0.01837
0.00204
0.00877
0.00642
0.01733
0.00195
0.03006
0.01420
0.00170
0.00642
-0.00068
-0.00170
-0.01650
-0.01653
-0.01441
-0.00088
-0.01441
-0.01653
-0.01650
0.01769
0.00170
0.01420
0.03006
0.00195
-0.01228
0.00877
0.00204
0.01837
-0.00610
0.00195
0.00928
-0.00537
0.03200
-0.00229
-0.00949
-0.01493
0.04782
0.00102
-0.01542
-0.01157
-0.01518
-0.00908
0.00051
0.04124
-0.01210
-0.01539
-0.00826
-0.00908
-0.01089
0.06326
0.00140
-0.01081
-0.00826
-0.01518
-0.01493
-0.02145
-0.02195
-0.02475
0.04036
-0.02475
-0.02195
-0.02145
-0.00949
-0.01081
0.00140
0.06326
-0.01089
-0.00229
-0.01539
-0.01210
0.04124
0.00051
-0.01157
-0.01542
0.00102
0.04782
-0.00219
-0.02891
-0.02641
0.04981
0.00109
-0.02135
-0.02130
-0.02678
-0.02860
0.00137
0.04668
-0.02143
-0.02081
-0.02611
-0.02860
-0.01041
0.03286
-0.01474
-0.01077
-0.02611
-0.02678
-0.02641
-0.01635
-0.01703
-0.00506
-0.01236
-0.00506
-0.01703
-0.01635
-0.02891
-0.01077
-0.01474
0.03286
-0.01041
-0.00219
-0.02081
-0.02143
0.04668
0.00137
-0.02130
-0.02135
0.00109
0.04981
-0.00455
-0.01696
-0.01837
0.06234
0.00756
-0.02192
-0.01891
-0.01860
-0.01668
0.00850
0.05880
-0.01838
-0.02109
0.00168
-0.01668
-0.02900
0.06395
0.01023
-0.02992
0.00168
-0.01860
-0.01837
-0.02755
-0.02812
-0.00366
0.04793
-0.00366
-0.02812
-0.02755
-0.01696
-0.02992
0.01023
0.06395
-0.02900
-0.00455
-0.02109
-0.01838
0.05880
0.00850
-0.01891
-0.02192
0.00756
0.06234
0.10000
