# vtk DataFile Version 3.0
Point representing Sub_cellular elem model
ASCII

DATASET UNSTRUCTURED_GRID
POINTS 36 float
-39.12040 -23.77602 63.22261 
-39.10985 23.77072 63.06334 
0.00985 -41.29692 66.76495 
-0.00000 -0.00000 77.42827 
-0.00985 41.29692 66.76495 
39.10985 -23.77072 63.06334 
39.12040 23.77602 63.22261 
-33.49846 -20.88027 55.16114 
-33.48950 20.86372 55.13599 
-0.00608 -35.58701 58.28719 
-0.00000 -0.00000 67.43296 
0.00608 35.58701 58.28719 
33.48950 -20.86372 55.13599 
33.49846 20.88027 55.16114 
-28.20999 -17.79094 46.79923 
-28.20914 17.78791 46.82591 
-0.00519 -29.91771 49.48018 
-0.00000 -0.00000 57.12888 
0.00519 29.91771 49.48018 
28.20914 -17.78791 46.82591 
28.20999 17.79094 46.79923 
-23.36863 -14.67199 38.16534 
-23.37519 14.68046 38.21312 
-0.00399 -25.17255 40.40187 
-0.00000 -0.00000 47.23513 
0.00399 25.17255 40.40187 
23.37519 -14.68046 38.21312 
23.36863 14.67199 38.16534 
-17.73947 -11.66816 29.86380 
-17.76443 11.69580 29.92787 
0.00049 -19.62417 31.50934 
-0.00000 -0.00000 36.87443 
-0.00049 19.62417 31.50934 
17.76443 -11.69580 29.92787 
17.73947 11.66816 29.86380 
0.00000 0.00000 -0.10000 
CELLS 233 698
2 0 1
2 0 2
2 0 3
2 1 3
2 1 4
2 2 3
2 2 5
2 3 4
2 3 5
2 3 6
2 4 6
2 5 6
2 7 8
2 7 9
2 7 10
2 8 10
2 8 11
2 9 10
2 9 12
2 10 11
2 10 12
2 10 13
2 11 13
2 12 13
2 14 15
2 14 16
2 14 17
2 15 17
2 15 18
2 16 17
2 16 19
2 17 18
2 17 19
2 17 20
2 18 20
2 19 20
2 21 22
2 21 23
2 21 24
2 22 24
2 22 25
2 23 24
2 23 26
2 24 25
2 24 26
2 24 27
2 25 27
2 26 27
2 28 29
2 28 30
2 28 31
2 29 31
2 29 32
2 30 31
2 30 33
2 31 32
2 31 33
2 31 34
2 32 34
2 33 34
2 0 1
2 0 2
2 0 3
2 0 7
2 0 8
2 0 9
2 0 10
2 1 3
2 1 4
2 1 7
2 1 8
2 1 10
2 1 11
2 2 3
2 2 5
2 2 7
2 2 9
2 2 10
2 2 12
2 3 4
2 3 5
2 3 6
2 3 7
2 3 8
2 3 9
2 3 10
2 3 11
2 3 12
2 3 13
2 4 6
2 4 8
2 4 10
2 4 11
2 4 13
2 5 6
2 5 9
2 5 10
2 5 12
2 5 13
2 6 10
2 6 11
2 6 12
2 6 13
2 7 8
2 7 9
2 7 10
2 7 14
2 7 15
2 7 16
2 7 17
2 8 10
2 8 11
2 8 14
2 8 15
2 8 17
2 8 18
2 9 10
2 9 12
2 9 14
2 9 16
2 9 17
2 9 19
2 10 11
2 10 12
2 10 13
2 10 14
2 10 15
2 10 16
2 10 17
2 10 18
2 10 19
2 10 20
2 11 13
2 11 15
2 11 17
2 11 18
2 11 20
2 12 13
2 12 16
2 12 17
2 12 19
2 12 20
2 13 17
2 13 18
2 13 19
2 13 20
2 14 15
2 14 16
2 14 17
2 14 21
2 14 22
2 14 23
2 14 24
2 15 17
2 15 18
2 15 21
2 15 22
2 15 24
2 15 25
2 16 17
2 16 19
2 16 21
2 16 23
2 16 24
2 16 26
2 17 18
2 17 19
2 17 20
2 17 21
2 17 22
2 17 23
2 17 24
2 17 25
2 17 26
2 17 27
2 18 20
2 18 22
2 18 24
2 18 25
2 18 27
2 19 20
2 19 23
2 19 24
2 19 26
2 19 27
2 20 24
2 20 25
2 20 26
2 20 27
2 21 22
2 21 23
2 21 24
2 21 28
2 21 29
2 21 30
2 21 31
2 22 24
2 22 25
2 22 28
2 22 29
2 22 31
2 22 32
2 23 24
2 23 26
2 23 28
2 23 30
2 23 31
2 23 33
2 24 25
2 24 26
2 24 27
2 24 28
2 24 29
2 24 30
2 24 31
2 24 32
2 24 33
2 24 34
2 25 27
2 25 29
2 25 31
2 25 32
2 25 34
2 26 27
2 26 30
2 26 31
2 26 33
2 26 34
2 27 31
2 27 32
2 27 33
2 27 34
1 35
CELL_TYPES 233
3
3
3
3
3
3
3
3
3
3
3
3
3
3
3
3
3
3
3
3
3
3
3
3
3
3
3
3
3
3
3
3
3
3
3
3
3
3
3
3
3
3
3
3
3
3
3
3
3
3
3
3
3
3
3
3
3
3
3
3
3
3
3
3
3
3
3
3
3
3
3
3
3
3
3
3
3
3
3
3
3
3
3
3
3
3
3
3
3
3
3
3
3
3
3
3
3
3
3
3
3
3
3
3
3
3
3
3
3
3
3
3
3
3
3
3
3
3
3
3
3
3
3
3
3
3
3
3
3
3
3
3
3
3
3
3
3
3
3
3
3
3
3
3
3
3
3
3
3
3
3
3
3
3
3
3
3
3
3
3
3
3
3
3
3
3
3
3
3
3
3
3
3
3
3
3
3
3
3
3
3
3
3
3
3
3
3
3
3
3
3
3
3
3
3
3
3
3
3
3
3
3
3
3
3
3
3
3
3
3
3
3
3
3
3
3
3
3
3
3
3
3
3
3
3
3
3
3
3
3
3
3
1
CELL_DATA 233
SCALARS Strain double 1
LOOKUP_TABLE default
-0.01079
-0.04500
0.02359
0.02436
-0.04526
0.00730
-0.04526
0.00730
0.02436
0.02359
-0.04500
-0.01079
-0.00206
0.00577
0.04368
0.04347
0.00609
0.01725
0.00609
0.01725
0.04347
0.04368
0.00577
-0.00206
0.00500
0.05513
0.05111
0.05080
0.05539
0.04900
0.05539
0.04900
0.05080
0.05111
0.05513
0.00500
-0.00349
0.03416
0.04284
0.04265
0.03439
0.00617
0.03439
0.00617
0.04265
0.04284
0.03416
-0.00349
0.00382
0.04707
0.01590
0.01655
0.04735
-0.01155
0.04735
-0.01155
0.01655
0.01590
0.04707
0.00382
-0.00937
0.01357
-0.00134
0.02459
-0.00410
0.00725
0.00152
-0.00058
0.01329
-0.00461
0.01430
0.00159
0.00686
0.00489
0.01329
0.00143
0.02214
0.01084
0.00124
0.00489
-0.00058
-0.00134
-0.01267
-0.01272
-0.01105
-0.00047
-0.01105
-0.01272
-0.01267
0.01357
0.00124
0.01084
0.02214
0.00143
-0.00937
0.00686
0.00159
0.01430
-0.00461
0.00152
0.00725
-0.00410
0.02459
-0.00173
-0.00719
-0.01146
0.03650
0.00079
-0.01175
-0.00889
-0.01166
-0.00688
0.00044
0.03150
-0.00927
-0.01171
-0.00636
-0.00688
-0.00840
0.04740
0.00098
-0.00835
-0.00636
-0.01166
-0.01146
-0.01651
-0.01691
-0.01913
0.03041
-0.01913
-0.01691
-0.01651
-0.00719
-0.00835
0.00098
0.04740
-0.00840
-0.00173
-0.01171
-0.00927
0.03150
0.00044
-0.00889
-0.01175
0.00079
0.03650
-0.00160
-0.02205
-0.02024
0.03783
0.00079
-0.01634
-0.01629
-0.02053
-0.02181
0.00105
0.03539
-0.01637
-0.01591
-0.02009
-0.02181
-0.00793
0.02436
-0.01132
-0.00823
-0.02009
-0.02053
-0.02024
-0.01256
-0.01311
-0.00402
-0.01063
-0.00402
-0.01311
-0.01256
-0.02205
-0.00823
-0.01132
0.02436
-0.00793
-0.00160
-0.01591
-0.01637
0.03539
0.00105
-0.01629
-0.01634
0.00079
0.03783
-0.00349
-0.01284
-0.01393
0.04703
0.00568
-0.01679
-0.01446
-0.01411
-0.01263
0.00644
0.04420
-0.01402
-0.01614
0.00137
-0.01263
-0.02238
0.04815
0.00781
-0.02312
0.00137
-0.01411
-0.01393
-0.02122
-0.02167
-0.00293
0.03607
-0.00293
-0.02167
-0.02122
-0.01284
-0.02312
0.00781
0.04815
-0.02238
-0.00349
-0.01614
-0.01402
0.04420
0.00644
-0.01446
-0.01679
0.00568
0.04703
0.10000
