# vtk DataFile Version 3.0
Point representing Sub_cellular elem model
ASCII

DATASET UNSTRUCTURED_GRID
POINTS 36 float
-39.78084 -23.11872 64.12200 
-39.71416 23.09607 63.08335 
0.06778 -42.52096 69.57534 
-0.00000 0.00000 77.10665 
-0.06778 42.52096 69.57534 
39.71416 -23.09607 63.08335 
39.78084 23.11872 64.12200 
-32.43771 -20.80404 56.47015 
-32.36413 20.71956 56.19946 
-0.02147 -35.53923 60.71513 
-0.00000 0.00000 67.25362 
0.02147 35.53923 60.71513 
32.36413 -20.71956 56.19946 
32.43771 20.80404 56.47015 
-26.35344 -17.67803 47.34351 
-26.31786 17.64646 47.33769 
-0.02967 -28.69958 50.61146 
-0.00000 0.00000 55.94130 
0.02967 28.69958 50.61146 
26.31786 -17.64646 47.33769 
26.35344 17.67803 47.34351 
-21.93895 -14.52744 37.16337 
-21.93132 14.54085 37.23675 
-0.02432 -25.39330 39.89205 
-0.00000 0.00000 45.92884 
0.02432 25.39330 39.89205 
21.93132 -14.54085 37.23675 
21.93895 14.52744 37.16337 
-14.57334 -11.73291 28.06117 
-14.60937 11.78318 28.18112 
-0.01615 -18.97456 29.60544 
-0.00000 0.00000 34.31697 
0.01615 18.97456 29.60544 
14.60937 -11.78318 28.18112 
14.57334 11.73291 28.06117 
0.00000 0.00000 -0.10000 
CELLS 233 698
2 0 1
2 0 2
2 0 3
2 1 3
2 1 4
2 2 3
2 2 5
2 3 4
2 3 5
2 3 6
2 4 6
2 5 6
2 7 8
2 7 9
2 7 10
2 8 10
2 8 11
2 9 10
2 9 12
2 10 11
2 10 12
2 10 13
2 11 13
2 12 13
2 14 15
2 14 16
2 14 17
2 15 17
2 15 18
2 16 17
2 16 19
2 17 18
2 17 19
2 17 20
2 18 20
2 19 20
2 21 22
2 21 23
2 21 24
2 22 24
2 22 25
2 23 24
2 23 26
2 24 25
2 24 26
2 24 27
2 25 27
2 26 27
2 28 29
2 28 30
2 28 31
2 29 31
2 29 32
2 30 31
2 30 33
2 31 32
2 31 33
2 31 34
2 32 34
2 33 34
2 0 1
2 0 2
2 0 3
2 0 7
2 0 8
2 0 9
2 0 10
2 1 3
2 1 4
2 1 7
2 1 8
2 1 10
2 1 11
2 2 3
2 2 5
2 2 7
2 2 9
2 2 10
2 2 12
2 3 4
2 3 5
2 3 6
2 3 7
2 3 8
2 3 9
2 3 10
2 3 11
2 3 12
2 3 13
2 4 6
2 4 8
2 4 10
2 4 11
2 4 13
2 5 6
2 5 9
2 5 10
2 5 12
2 5 13
2 6 10
2 6 11
2 6 12
2 6 13
2 7 8
2 7 9
2 7 10
2 7 14
2 7 15
2 7 16
2 7 17
2 8 10
2 8 11
2 8 14
2 8 15
2 8 17
2 8 18
2 9 10
2 9 12
2 9 14
2 9 16
2 9 17
2 9 19
2 10 11
2 10 12
2 10 13
2 10 14
2 10 15
2 10 16
2 10 17
2 10 18
2 10 19
2 10 20
2 11 13
2 11 15
2 11 17
2 11 18
2 11 20
2 12 13
2 12 16
2 12 17
2 12 19
2 12 20
2 13 17
2 13 18
2 13 19
2 13 20
2 14 15
2 14 16
2 14 17
2 14 21
2 14 22
2 14 23
2 14 24
2 15 17
2 15 18
2 15 21
2 15 22
2 15 24
2 15 25
2 16 17
2 16 19
2 16 21
2 16 23
2 16 24
2 16 26
2 17 18
2 17 19
2 17 20
2 17 21
2 17 22
2 17 23
2 17 24
2 17 25
2 17 26
2 17 27
2 18 20
2 18 22
2 18 24
2 18 25
2 18 27
2 19 20
2 19 23
2 19 24
2 19 26
2 19 27
2 20 24
2 20 25
2 20 26
2 20 27
2 21 22
2 21 23
2 21 24
2 21 28
2 21 29
2 21 30
2 21 31
2 22 24
2 22 25
2 22 28
2 22 29
2 22 31
2 22 32
2 23 24
2 23 26
2 23 28
2 23 30
2 23 31
2 23 33
2 24 25
2 24 26
2 24 27
2 24 28
2 24 29
2 24 30
2 24 31
2 24 32
2 24 33
2 24 34
2 25 27
2 25 29
2 25 31
2 25 32
2 25 34
2 26 27
2 26 30
2 26 31
2 26 33
2 26 34
2 27 31
2 27 32
2 27 33
2 27 34
1 35
CELL_TYPES 233
3
3
3
3
3
3
3
3
3
3
3
3
3
3
3
3
3
3
3
3
3
3
3
3
3
3
3
3
3
3
3
3
3
3
3
3
3
3
3
3
3
3
3
3
3
3
3
3
3
3
3
3
3
3
3
3
3
3
3
3
3
3
3
3
3
3
3
3
3
3
3
3
3
3
3
3
3
3
3
3
3
3
3
3
3
3
3
3
3
3
3
3
3
3
3
3
3
3
3
3
3
3
3
3
3
3
3
3
3
3
3
3
3
3
3
3
3
3
3
3
3
3
3
3
3
3
3
3
3
3
3
3
3
3
3
3
3
3
3
3
3
3
3
3
3
3
3
3
3
3
3
3
3
3
3
3
3
3
3
3
3
3
3
3
3
3
3
3
3
3
3
3
3
3
3
3
3
3
3
3
3
3
3
3
3
3
3
3
3
3
3
3
3
3
3
3
3
3
3
3
3
3
3
3
3
3
3
3
3
3
3
3
3
3
3
3
3
3
3
3
3
3
3
3
3
3
3
3
3
3
3
3
1
CELL_DATA 233
SCALARS Strain double 1
LOOKUP_TABLE default
-0.04219
-0.14917
0.09933
0.10454
-0.14976
0.02689
-0.14976
0.02689
0.10454
0.09933
-0.14917
-0.04219
-0.00823
0.02050
0.20189
0.20100
0.02164
0.07326
0.02164
0.07326
0.20100
0.20189
0.02050
-0.00823
0.01701
0.26977
0.24985
0.24818
0.27130
0.24176
0.27130
0.24176
0.24818
0.24985
0.26977
0.01701
-0.01314
0.14575
0.19183
0.19088
0.14680
0.02081
0.14680
0.02081
0.19088
0.19183
0.14575
-0.01314
0.01036
0.24962
0.07235
0.07338
0.25175
-0.05006
0.25175
-0.05006
0.07338
0.07235
0.24962
0.01036
-0.03688
0.05211
-0.00393
0.08549
-0.01614
0.02285
0.00468
0.00079
0.05137
-0.01993
0.03469
0.00497
0.02071
0.01741
0.05137
0.00909
0.12808
0.04221
0.00828
0.01741
0.00079
-0.00393
-0.04768
-0.04694
-0.04215
-0.01470
-0.04215
-0.04694
-0.04768
0.05211
0.00828
0.04221
0.12808
0.00909
-0.03688
0.02071
0.00497
0.03469
-0.01993
0.00468
0.02285
-0.01614
0.08549
-0.00697
-0.03024
-0.04305
0.14055
0.00287
-0.04792
-0.03353
-0.04375
-0.02915
-0.00038
0.11594
-0.03630
-0.04903
-0.02279
-0.02915
-0.02973
0.22010
0.00808
-0.02905
-0.02279
-0.04375
-0.04305
-0.06055
-0.06147
-0.06734
0.13123
-0.06734
-0.06147
-0.06055
-0.03024
-0.02905
0.00808
0.22010
-0.02973
-0.00697
-0.04903
-0.03630
0.11594
-0.00038
-0.03353
-0.04792
0.00287
0.14055
-0.00874
-0.08849
-0.07740
0.15347
0.00438
-0.06312
-0.06317
-0.07863
-0.08740
0.00355
0.14418
-0.06456
-0.06249
-0.07371
-0.08740
-0.03264
0.12177
-0.04173
-0.03268
-0.07371
-0.07863
-0.07740
-0.04662
-0.04785
-0.01007
0.00125
-0.01007
-0.04785
-0.04662
-0.08849
-0.03268
-0.04173
0.12177
-0.03264
-0.00874
-0.06249
-0.06456
0.14418
0.00355
-0.06317
-0.06312
0.00438
0.15347
-0.01314
-0.05511
-0.05843
0.20380
0.02581
-0.06383
-0.05573
-0.05918
-0.05424
0.02704
0.19676
-0.05540
-0.06209
0.00205
-0.05424
-0.08014
0.21250
0.03079
-0.08162
0.00205
-0.05918
-0.05843
-0.07697
-0.07838
-0.00760
0.16119
-0.00760
-0.07838
-0.07697
-0.05511
-0.08162
0.03079
0.21250
-0.08014
-0.01314
-0.06209
-0.05540
0.19676
0.02704
-0.05573
-0.06383
0.02581
0.20380
0.10000
