# vtk DataFile Version 3.0
Point representing Sub_cellular elem model
ASCII

DATASET UNSTRUCTURED_GRID
POINTS 36 float
-39.29587 -23.29976 63.11835 
-39.35601 23.37575 62.81043 
0.03431 -41.51963 67.37872 
-0.00000 0.00000 78.32083 
-0.03431 41.51963 67.37872 
39.35601 -23.37575 62.81043 
39.29587 23.29976 63.11835 
-33.10629 -20.87526 55.29897 
-33.08886 20.85403 55.20202 
-0.00526 -35.40999 58.99277 
-0.00000 0.00000 68.01467 
0.00526 35.40999 58.99277 
33.08886 -20.85403 55.20202 
33.10629 20.87526 55.29897 
-27.60953 -17.73224 46.80980 
-27.59314 17.70307 46.78953 
-0.01410 -29.60223 49.97194 
-0.00000 0.00000 57.25303 
0.01410 29.60223 49.97194 
27.59314 -17.70307 46.78953 
27.60953 17.73224 46.80980 
-22.75391 -14.51200 37.65136 
-22.74591 14.49602 37.65508 
-0.00831 -25.34641 40.65487 
-0.00000 0.00000 47.76300 
0.00831 25.34641 40.65487 
22.74591 -14.49602 37.65508 
22.75391 14.51200 37.65136 
-15.15876 -11.57366 29.41775 
-15.16582 11.56487 29.42969 
-0.01158 -18.48694 31.17592 
-0.00000 0.00000 35.67747 
0.01158 18.48694 31.17592 
15.16582 -11.56487 29.42969 
15.15876 11.57366 29.41775 
0.00000 0.00000 -0.10000 
CELLS 233 698
2 0 1
2 0 2
2 0 3
2 1 3
2 1 4
2 2 3
2 2 5
2 3 4
2 3 5
2 3 6
2 4 6
2 5 6
2 7 8
2 7 9
2 7 10
2 8 10
2 8 11
2 9 10
2 9 12
2 10 11
2 10 12
2 10 13
2 11 13
2 12 13
2 14 15
2 14 16
2 14 17
2 15 17
2 15 18
2 16 17
2 16 19
2 17 18
2 17 19
2 17 20
2 18 20
2 19 20
2 21 22
2 21 23
2 21 24
2 22 24
2 22 25
2 23 24
2 23 26
2 24 25
2 24 26
2 24 27
2 25 27
2 26 27
2 28 29
2 28 30
2 28 31
2 29 31
2 29 32
2 30 31
2 30 33
2 31 32
2 31 33
2 31 34
2 32 34
2 33 34
2 0 1
2 0 2
2 0 3
2 0 7
2 0 8
2 0 9
2 0 10
2 1 3
2 1 4
2 1 7
2 1 8
2 1 10
2 1 11
2 2 3
2 2 5
2 2 7
2 2 9
2 2 10
2 2 12
2 3 4
2 3 5
2 3 6
2 3 7
2 3 8
2 3 9
2 3 10
2 3 11
2 3 12
2 3 13
2 4 6
2 4 8
2 4 10
2 4 11
2 4 13
2 5 6
2 5 9
2 5 10
2 5 12
2 5 13
2 6 10
2 6 11
2 6 12
2 6 13
2 7 8
2 7 9
2 7 10
2 7 14
2 7 15
2 7 16
2 7 17
2 8 10
2 8 11
2 8 14
2 8 15
2 8 17
2 8 18
2 9 10
2 9 12
2 9 14
2 9 16
2 9 17
2 9 19
2 10 11
2 10 12
2 10 13
2 10 14
2 10 15
2 10 16
2 10 17
2 10 18
2 10 19
2 10 20
2 11 13
2 11 15
2 11 17
2 11 18
2 11 20
2 12 13
2 12 16
2 12 17
2 12 19
2 12 20
2 13 17
2 13 18
2 13 19
2 13 20
2 14 15
2 14 16
2 14 17
2 14 21
2 14 22
2 14 23
2 14 24
2 15 17
2 15 18
2 15 21
2 15 22
2 15 24
2 15 25
2 16 17
2 16 19
2 16 21
2 16 23
2 16 24
2 16 26
2 17 18
2 17 19
2 17 20
2 17 21
2 17 22
2 17 23
2 17 24
2 17 25
2 17 26
2 17 27
2 18 20
2 18 22
2 18 24
2 18 25
2 18 27
2 19 20
2 19 23
2 19 24
2 19 26
2 19 27
2 20 24
2 20 25
2 20 26
2 20 27
2 21 22
2 21 23
2 21 24
2 21 28
2 21 29
2 21 30
2 21 31
2 22 24
2 22 25
2 22 28
2 22 29
2 22 31
2 22 32
2 23 24
2 23 26
2 23 28
2 23 30
2 23 31
2 23 33
2 24 25
2 24 26
2 24 27
2 24 28
2 24 29
2 24 30
2 24 31
2 24 32
2 24 33
2 24 34
2 25 27
2 25 29
2 25 31
2 25 32
2 25 34
2 26 27
2 26 30
2 26 31
2 26 33
2 26 34
2 27 31
2 27 32
2 27 33
2 27 34
1 35
CELL_TYPES 233
3
3
3
3
3
3
3
3
3
3
3
3
3
3
3
3
3
3
3
3
3
3
3
3
3
3
3
3
3
3
3
3
3
3
3
3
3
3
3
3
3
3
3
3
3
3
3
3
3
3
3
3
3
3
3
3
3
3
3
3
3
3
3
3
3
3
3
3
3
3
3
3
3
3
3
3
3
3
3
3
3
3
3
3
3
3
3
3
3
3
3
3
3
3
3
3
3
3
3
3
3
3
3
3
3
3
3
3
3
3
3
3
3
3
3
3
3
3
3
3
3
3
3
3
3
3
3
3
3
3
3
3
3
3
3
3
3
3
3
3
3
3
3
3
3
3
3
3
3
3
3
3
3
3
3
3
3
3
3
3
3
3
3
3
3
3
3
3
3
3
3
3
3
3
3
3
3
3
3
3
3
3
3
3
3
3
3
3
3
3
3
3
3
3
3
3
3
3
3
3
3
3
3
3
3
3
3
3
3
3
3
3
3
3
3
3
3
3
3
3
3
3
3
3
3
3
3
3
3
3
3
3
1
CELL_DATA 233
SCALARS Strain double 1
LOOKUP_TABLE default
0.02103
-0.05449
0.01508
0.00852
-0.05391
-0.00534
-0.05391
-0.00534
0.00852
0.01508
-0.05449
0.02103
0.00627
0.02877
0.05674
0.05772
0.02753
0.02461
0.02753
0.02461
0.05772
0.05674
0.02877
0.00627
0.00861
0.10786
0.09276
0.09464
0.10611
0.08438
0.10611
0.08438
0.09464
0.09276
0.10786
0.00861
0.00217
0.06557
0.07657
0.07746
0.06447
0.01043
0.06447
0.01043
0.07746
0.07657
0.06557
0.00217
-0.01667
0.14998
0.09088
0.09086
0.14872
-0.00548
0.14872
-0.00548
0.09086
0.09088
0.14998
-0.01667
-0.02750
0.02617
0.00314
0.02631
-0.01345
0.01129
0.00095
0.00697
0.02597
-0.01275
0.01746
0.00364
0.01167
0.01163
0.02597
0.00027
0.03756
0.01627
-0.00047
0.01163
0.00697
0.00314
-0.01079
-0.01021
-0.01268
0.03062
-0.01268
-0.01021
-0.01079
0.02617
-0.00047
0.01627
0.03756
0.00027
-0.02750
0.01167
0.00364
0.01746
-0.01275
0.00095
0.01129
-0.01345
0.02631
-0.00208
-0.01727
-0.01588
0.05905
0.00030
-0.02630
-0.01730
-0.01576
-0.01694
-0.00025
0.05309
-0.01783
-0.02627
-0.01182
-0.01694
-0.01689
0.07287
-0.00333
-0.01641
-0.01182
-0.01576
-0.01588
-0.02026
-0.02061
-0.02541
0.07616
-0.02541
-0.02061
-0.02026
-0.01727
-0.01641
-0.00333
0.07287
-0.01689
-0.00208
-0.02627
-0.01783
0.05309
-0.00025
-0.01730
-0.02630
0.00030
0.05905
-0.00563
-0.04148
-0.03369
0.08546
-0.00154
-0.03490
-0.03184
-0.03431
-0.04070
-0.00215
0.08267
-0.03269
-0.03479
-0.03264
-0.04070
-0.01325
0.02430
-0.02178
-0.01253
-0.03264
-0.03431
-0.03369
-0.01627
-0.01670
-0.00158
-0.05100
-0.00158
-0.01670
-0.01627
-0.04148
-0.01253
-0.02178
0.02430
-0.01325
-0.00563
-0.03479
-0.03269
0.08267
-0.00215
-0.03184
-0.03490
-0.00154
0.08546
-0.01519
-0.02592
-0.02158
0.15808
0.01240
-0.04930
-0.03455
-0.02211
-0.02538
0.01231
0.15632
-0.03509
-0.04859
0.01062
-0.02538
-0.07397
0.17006
0.02415
-0.07338
0.01062
-0.02211
-0.02158
-0.05585
-0.05614
-0.01523
0.20855
-0.01523
-0.05614
-0.05585
-0.02592
-0.07338
0.02415
0.17006
-0.07397
-0.01519
-0.04859
-0.03509
0.15632
0.01231
-0.03455
-0.04930
0.01240
0.15808
0.10000
