# vtk DataFile Version 3.0
Point representing Sub_cellular elem model
ASCII

DATASET UNSTRUCTURED_GRID
POINTS 36 float
-39.95298 -22.49029 64.43670 
-39.95415 22.62211 62.51639 
0.17803 -42.83769 70.57461 
0.00000 0.00000 77.70565 
-0.17803 42.83769 70.57461 
39.95415 -22.62211 62.51639 
39.95298 22.49029 64.43670 
-31.98830 -20.82258 56.94238 
-31.87844 20.72931 56.33360 
-0.00991 -35.19741 61.54283 
0.00000 0.00000 67.61806 
0.00991 35.19741 61.54283 
31.87844 -20.72931 56.33360 
31.98830 20.82258 56.94238 
-25.83433 -17.64184 47.47488 
-25.76040 17.56839 47.34048 
-0.04983 -28.43349 50.81540 
0.00000 0.00000 55.98191 
0.04983 28.43349 50.81540 
25.76040 -17.56839 47.34048 
25.83433 17.64184 47.47488 
-21.42573 -14.40857 36.84872 
-21.39219 14.39324 36.86033 
-0.03799 -25.44766 39.76425 
0.00000 0.00000 46.05816 
0.03799 25.44766 39.76425 
21.39219 -14.39324 36.86033 
21.42573 14.40857 36.84872 
-12.85110 -11.62934 27.56339 
-12.84712 11.64438 27.63523 
-0.03059 -17.92556 28.98651 
0.00000 0.00000 33.10820 
0.03059 17.92556 28.98651 
12.84712 -11.64438 27.63523 
12.85110 11.62934 27.56339 
0.00000 0.00000 -0.10000 
CELLS 233 698
2 0 1
2 0 2
2 0 3
2 1 3
2 1 4
2 2 3
2 2 5
2 3 4
2 3 5
2 3 6
2 4 6
2 5 6
2 7 8
2 7 9
2 7 10
2 8 10
2 8 11
2 9 10
2 9 12
2 10 11
2 10 12
2 10 13
2 11 13
2 12 13
2 14 15
2 14 16
2 14 17
2 15 17
2 15 18
2 16 17
2 16 19
2 17 18
2 17 19
2 17 20
2 18 20
2 19 20
2 21 22
2 21 23
2 21 24
2 22 24
2 22 25
2 23 24
2 23 26
2 24 25
2 24 26
2 24 27
2 25 27
2 26 27
2 28 29
2 28 30
2 28 31
2 29 31
2 29 32
2 30 31
2 30 33
2 31 32
2 31 33
2 31 34
2 32 34
2 33 34
2 0 1
2 0 2
2 0 3
2 0 7
2 0 8
2 0 9
2 0 10
2 1 3
2 1 4
2 1 7
2 1 8
2 1 10
2 1 11
2 2 3
2 2 5
2 2 7
2 2 9
2 2 10
2 2 12
2 3 4
2 3 5
2 3 6
2 3 7
2 3 8
2 3 9
2 3 10
2 3 11
2 3 12
2 3 13
2 4 6
2 4 8
2 4 10
2 4 11
2 4 13
2 5 6
2 5 9
2 5 10
2 5 12
2 5 13
2 6 10
2 6 11
2 6 12
2 6 13
2 7 8
2 7 9
2 7 10
2 7 14
2 7 15
2 7 16
2 7 17
2 8 10
2 8 11
2 8 14
2 8 15
2 8 17
2 8 18
2 9 10
2 9 12
2 9 14
2 9 16
2 9 17
2 9 19
2 10 11
2 10 12
2 10 13
2 10 14
2 10 15
2 10 16
2 10 17
2 10 18
2 10 19
2 10 20
2 11 13
2 11 15
2 11 17
2 11 18
2 11 20
2 12 13
2 12 16
2 12 17
2 12 19
2 12 20
2 13 17
2 13 18
2 13 19
2 13 20
2 14 15
2 14 16
2 14 17
2 14 21
2 14 22
2 14 23
2 14 24
2 15 17
2 15 18
2 15 21
2 15 22
2 15 24
2 15 25
2 16 17
2 16 19
2 16 21
2 16 23
2 16 24
2 16 26
2 17 18
2 17 19
2 17 20
2 17 21
2 17 22
2 17 23
2 17 24
2 17 25
2 17 26
2 17 27
2 18 20
2 18 22
2 18 24
2 18 25
2 18 27
2 19 20
2 19 23
2 19 24
2 19 26
2 19 27
2 20 24
2 20 25
2 20 26
2 20 27
2 21 22
2 21 23
2 21 24
2 21 28
2 21 29
2 21 30
2 21 31
2 22 24
2 22 25
2 22 28
2 22 29
2 22 31
2 22 32
2 23 24
2 23 26
2 23 28
2 23 30
2 23 31
2 23 33
2 24 25
2 24 26
2 24 27
2 24 28
2 24 29
2 24 30
2 24 31
2 24 32
2 24 33
2 24 34
2 25 27
2 25 29
2 25 31
2 25 32
2 25 34
2 26 27
2 26 30
2 26 31
2 26 33
2 26 34
2 27 31
2 27 32
2 27 33
2 27 34
1 35
CELL_TYPES 233
3
3
3
3
3
3
3
3
3
3
3
3
3
3
3
3
3
3
3
3
3
3
3
3
3
3
3
3
3
3
3
3
3
3
3
3
3
3
3
3
3
3
3
3
3
3
3
3
3
3
3
3
3
3
3
3
3
3
3
3
3
3
3
3
3
3
3
3
3
3
3
3
3
3
3
3
3
3
3
3
3
3
3
3
3
3
3
3
3
3
3
3
3
3
3
3
3
3
3
3
3
3
3
3
3
3
3
3
3
3
3
3
3
3
3
3
3
3
3
3
3
3
3
3
3
3
3
3
3
3
3
3
3
3
3
3
3
3
3
3
3
3
3
3
3
3
3
3
3
3
3
3
3
3
3
3
3
3
3
3
3
3
3
3
3
3
3
3
3
3
3
3
3
3
3
3
3
3
3
3
3
3
3
3
3
3
3
3
3
3
3
3
3
3
3
3
3
3
3
3
3
3
3
3
3
3
3
3
3
3
3
3
3
3
3
3
3
3
3
3
3
3
3
3
3
3
3
3
3
3
3
3
1
CELL_DATA 233
SCALARS Strain double 1
LOOKUP_TABLE default
-0.01768
-0.16835
0.11086
0.10280
-0.16693
0.01805
-0.16693
0.01805
0.10280
0.11086
-0.16835
-0.01768
0.00098
0.04843
0.23978
0.23630
0.04870
0.10765
0.04870
0.10765
0.23630
0.23978
0.04843
0.00098
0.02420
0.35849
0.30452
0.30456
0.35805
0.28114
0.35805
0.28114
0.30456
0.30452
0.35849
0.02420
-0.00496
0.17968
0.23053
0.23028
0.18021
0.01611
0.18021
0.01611
0.23028
0.23053
0.17968
-0.00496
-0.01092
0.38907
0.13567
0.13553
0.39259
-0.03844
0.39259
-0.03844
0.13553
0.13567
0.38907
-0.01092
-0.05924
0.06992
-0.00556
0.10626
-0.02602
0.02829
0.00122
0.00760
0.06824
-0.03013
0.03453
0.00641
0.02564
0.02318
0.06824
0.01063
0.18314
0.05092
0.00805
0.02318
0.00760
-0.00556
-0.05342
-0.04972
-0.05209
0.00876
-0.05209
-0.04972
-0.05342
0.06992
0.00805
0.05092
0.18314
0.01063
-0.05924
0.02564
0.00641
0.03453
-0.03013
0.00122
0.02829
-0.02602
0.10626
-0.00621
-0.04373
-0.05220
0.17312
0.00461
-0.06105
-0.04254
-0.05145
-0.04262
-0.00088
0.13268
-0.04638
-0.06371
-0.03409
-0.04262
-0.03716
0.26819
0.00177
-0.03569
-0.03409
-0.05145
-0.05220
-0.06694
-0.06726
-0.07152
0.16362
-0.07152
-0.06726
-0.06694
-0.04373
-0.03569
0.00177
0.26819
-0.03716
-0.00621
-0.06371
-0.04638
0.13268
-0.00088
-0.04254
-0.06105
0.00461
0.17312
-0.01193
-0.10670
-0.09026
0.19501
0.00390
-0.07621
-0.07643
-0.09203
-0.10454
0.00075
0.17896
-0.07962
-0.07668
-0.08295
-0.10454
-0.03998
0.14474
-0.04998
-0.03832
-0.08295
-0.09203
-0.09026
-0.05221
-0.05328
-0.00558
-0.00763
-0.00558
-0.05328
-0.05221
-0.10670
-0.03832
-0.04998
0.14474
-0.03998
-0.01193
-0.07668
-0.07962
0.17896
0.00075
-0.07643
-0.07621
0.00390
0.19501
-0.02219
-0.06923
-0.06934
0.29410
0.03236
-0.08555
-0.06917
-0.07063
-0.06758
0.03194
0.28717
-0.07040
-0.08429
0.00640
-0.06758
-0.10990
0.31431
0.04291
-0.11018
0.00640
-0.07063
-0.06934
-0.09568
-0.09737
-0.01853
0.29500
-0.01853
-0.09737
-0.09568
-0.06923
-0.11018
0.04291
0.31431
-0.10990
-0.02219
-0.08429
-0.07040
0.28717
0.03194
-0.06917
-0.08555
0.03236
0.29410
0.10000
