# vtk DataFile Version 3.0
Point representing Sub_cellular elem model
ASCII

DATASET UNSTRUCTURED_GRID
POINTS 36 float
-39.66337 -23.26077 63.97403 
-39.61859 23.24151 63.22721 
0.04747 -42.28519 68.81098 
-0.00000 0.00000 77.13914 
-0.04747 42.28519 68.81098 
39.61859 -23.24151 63.22721 
39.66337 23.26077 63.97403 
-32.68391 -20.81620 56.17747 
-32.63243 20.75161 55.99678 
-0.01858 -35.55597 60.13774 
-0.00000 0.00000 67.23028 
0.01858 35.55597 60.13774 
32.63243 -20.75161 55.99678 
32.68391 20.81620 56.17747 
-26.76543 -17.70490 47.21028 
-26.74232 17.68362 47.22805 
-0.02254 -28.96794 50.37439 
-0.00000 0.00000 56.14864 
0.02254 28.96794 50.37439 
26.74232 -17.68362 47.22805 
26.76543 17.70490 47.21028 
-22.26114 -14.55691 37.36281 
-22.26081 14.57188 37.44240 
-0.01856 -25.35999 40.01365 
-0.00000 0.00000 46.21850 
0.01856 25.35999 40.01365 
22.26081 -14.57188 37.44240 
22.26114 14.55691 37.36281 
-15.26249 -11.72269 28.45896 
-15.30318 11.77380 28.57878 
-0.01011 -19.13434 30.05814 
-0.00000 0.00000 34.90351 
0.01011 19.13434 30.05814 
15.30318 -11.77380 28.57878 
15.26249 11.72269 28.45896 
0.00000 0.00000 -0.10000 
CELLS 233 698
2 0 1
2 0 2
2 0 3
2 1 3
2 1 4
2 2 3
2 2 5
2 3 4
2 3 5
2 3 6
2 4 6
2 5 6
2 7 8
2 7 9
2 7 10
2 8 10
2 8 11
2 9 10
2 9 12
2 10 11
2 10 12
2 10 13
2 11 13
2 12 13
2 14 15
2 14 16
2 14 17
2 15 17
2 15 18
2 16 17
2 16 19
2 17 18
2 17 19
2 17 20
2 18 20
2 19 20
2 21 22
2 21 23
2 21 24
2 22 24
2 22 25
2 23 24
2 23 26
2 24 25
2 24 26
2 24 27
2 25 27
2 26 27
2 28 29
2 28 30
2 28 31
2 29 31
2 29 32
2 30 31
2 30 33
2 31 32
2 31 33
2 31 34
2 32 34
2 33 34
2 0 1
2 0 2
2 0 3
2 0 7
2 0 8
2 0 9
2 0 10
2 1 3
2 1 4
2 1 7
2 1 8
2 1 10
2 1 11
2 2 3
2 2 5
2 2 7
2 2 9
2 2 10
2 2 12
2 3 4
2 3 5
2 3 6
2 3 7
2 3 8
2 3 9
2 3 10
2 3 11
2 3 12
2 3 13
2 4 6
2 4 8
2 4 10
2 4 11
2 4 13
2 5 6
2 5 9
2 5 10
2 5 12
2 5 13
2 6 10
2 6 11
2 6 12
2 6 13
2 7 8
2 7 9
2 7 10
2 7 14
2 7 15
2 7 16
2 7 17
2 8 10
2 8 11
2 8 14
2 8 15
2 8 17
2 8 18
2 9 10
2 9 12
2 9 14
2 9 16
2 9 17
2 9 19
2 10 11
2 10 12
2 10 13
2 10 14
2 10 15
2 10 16
2 10 17
2 10 18
2 10 19
2 10 20
2 11 13
2 11 15
2 11 17
2 11 18
2 11 20
2 12 13
2 12 16
2 12 17
2 12 19
2 12 20
2 13 17
2 13 18
2 13 19
2 13 20
2 14 15
2 14 16
2 14 17
2 14 21
2 14 22
2 14 23
2 14 24
2 15 17
2 15 18
2 15 21
2 15 22
2 15 24
2 15 25
2 16 17
2 16 19
2 16 21
2 16 23
2 16 24
2 16 26
2 17 18
2 17 19
2 17 20
2 17 21
2 17 22
2 17 23
2 17 24
2 17 25
2 17 26
2 17 27
2 18 20
2 18 22
2 18 24
2 18 25
2 18 27
2 19 20
2 19 23
2 19 24
2 19 26
2 19 27
2 20 24
2 20 25
2 20 26
2 20 27
2 21 22
2 21 23
2 21 24
2 21 28
2 21 29
2 21 30
2 21 31
2 22 24
2 22 25
2 22 28
2 22 29
2 22 31
2 22 32
2 23 24
2 23 26
2 23 28
2 23 30
2 23 31
2 23 33
2 24 25
2 24 26
2 24 27
2 24 28
2 24 29
2 24 30
2 24 31
2 24 32
2 24 33
2 24 34
2 25 27
2 25 29
2 25 31
2 25 32
2 25 34
2 26 27
2 26 30
2 26 31
2 26 33
2 26 34
2 27 31
2 27 32
2 27 33
2 27 34
1 35
CELL_TYPES 233
3
3
3
3
3
3
3
3
3
3
3
3
3
3
3
3
3
3
3
3
3
3
3
3
3
3
3
3
3
3
3
3
3
3
3
3
3
3
3
3
3
3
3
3
3
3
3
3
3
3
3
3
3
3
3
3
3
3
3
3
3
3
3
3
3
3
3
3
3
3
3
3
3
3
3
3
3
3
3
3
3
3
3
3
3
3
3
3
3
3
3
3
3
3
3
3
3
3
3
3
3
3
3
3
3
3
3
3
3
3
3
3
3
3
3
3
3
3
3
3
3
3
3
3
3
3
3
3
3
3
3
3
3
3
3
3
3
3
3
3
3
3
3
3
3
3
3
3
3
3
3
3
3
3
3
3
3
3
3
3
3
3
3
3
3
3
3
3
3
3
3
3
3
3
3
3
3
3
3
3
3
3
3
3
3
3
3
3
3
3
3
3
3
3
3
3
3
3
3
3
3
3
3
3
3
3
3
3
3
3
3
3
3
3
3
3
3
3
3
3
3
3
3
3
3
3
3
3
3
3
3
3
1
CELL_DATA 233
SCALARS Strain double 1
LOOKUP_TABLE default
-0.03551
-0.12955
0.08200
0.08572
-0.13012
0.02335
-0.13012
0.02335
0.08572
0.08200
-0.12955
-0.03551
-0.00699
0.01759
0.16303
0.16230
0.01855
0.06030
0.01855
0.06030
0.16230
0.16303
0.01759
-0.00699
0.01467
0.21457
0.19889
0.19765
0.21567
0.19210
0.21567
0.19210
0.19765
0.19889
0.21457
0.01467
-0.01108
0.11991
0.15592
0.15520
0.12073
0.01805
0.12073
0.01805
0.15520
0.15592
0.11991
-0.01108
0.00952
0.19428
0.05865
0.05982
0.19580
-0.04096
0.19580
-0.04096
0.05982
0.05865
0.19428
0.00952
-0.03101
0.04368
-0.00350
0.07459
-0.01359
0.02019
0.00422
-0.00007
0.04300
-0.01631
0.03578
0.00445
0.01863
0.01540
0.04300
0.00668
0.09778
0.03561
0.00602
0.01540
-0.00007
-0.00350
-0.04022
-0.03984
-0.03544
-0.00911
-0.03544
-0.03984
-0.04022
0.04368
0.00602
0.03561
0.09778
0.00668
-0.03101
0.01863
0.00445
0.03578
-0.01631
0.00422
0.02019
-0.01359
0.07459
-0.00593
-0.02497
-0.03637
0.11856
0.00235
-0.03968
-0.02826
-0.03697
-0.02406
0.00012
0.09998
-0.03021
-0.04026
-0.01952
-0.02406
-0.02567
0.17782
0.00584
-0.02525
-0.01952
-0.03697
-0.03637
-0.05148
-0.05237
-0.05780
0.10816
-0.05780
-0.05237
-0.05148
-0.02497
-0.02525
0.00584
0.17782
-0.02567
-0.00593
-0.04026
-0.03021
0.09998
0.00012
-0.02826
-0.03968
0.00235
0.11856
-0.00694
-0.07372
-0.06519
0.12770
0.00340
-0.05302
-0.05309
-0.06616
-0.07288
0.00312
0.12038
-0.05399
-0.05226
-0.06268
-0.07288
-0.02715
0.09709
-0.03562
-0.02743
-0.06268
-0.06616
-0.06519
-0.03962
-0.04078
-0.00948
-0.00699
-0.00948
-0.04078
-0.03962
-0.07372
-0.02743
-0.03562
0.09709
-0.02715
-0.00694
-0.05226
-0.05399
0.12038
0.00312
-0.05309
-0.05302
0.00340
0.12770
-0.01108
-0.04526
-0.04827
0.16745
0.02097
-0.05388
-0.04697
-0.04887
-0.04456
0.02235
0.16105
-0.04643
-0.05229
0.00232
-0.04456
-0.06858
0.17419
0.02570
-0.07007
0.00232
-0.04887
-0.04827
-0.06569
-0.06691
-0.00698
0.13150
-0.00698
-0.06691
-0.06569
-0.04526
-0.07007
0.02570
0.17419
-0.06858
-0.01108
-0.05229
-0.04643
0.16105
0.02235
-0.04697
-0.05388
0.02097
0.16745
0.10000
