# vtk DataFile Version 3.0
Point representing Sub_cellular elem model
ASCII

DATASET UNSTRUCTURED_GRID
POINTS 36 float
-38.87022 -23.96921 62.87278 
-38.86931 23.96884 62.86111 
0.00080 -40.89079 66.14046 
-0.00000 -0.00000 77.61966 
-0.00080 40.89079 66.14046 
38.86931 -23.96884 62.86111 
38.87022 23.96921 62.87278 
-33.78756 -20.90424 54.78790 
-33.78714 20.90299 54.78720 
-0.00051 -35.57399 57.63798 
-0.00000 0.00000 67.62211 
0.00051 35.57399 57.63798 
33.78714 -20.90299 54.78720 
33.78756 20.90424 54.78790 
-28.74983 -17.81486 46.66862 
-28.75007 17.81478 46.67182 
-0.00035 -30.26168 49.09983 
0.00000 0.00000 57.58858 
0.00035 30.26168 49.09983 
28.75007 -17.81478 46.67182 
28.74983 17.81486 46.66862 
-23.77216 -14.72059 38.51430 
-23.77290 14.72144 38.51906 
-0.00027 -25.07102 40.52231 
0.00000 0.00000 47.61140 
0.00027 25.07102 40.52231 
23.77290 -14.72144 38.51906 
23.77216 14.72059 38.51430 
-18.69186 -11.64195 30.40285 
-18.69419 11.64451 30.40907 
0.00001 -19.77119 31.97132 
-0.00000 0.00000 37.56841 
-0.00001 19.77119 31.97132 
18.69419 -11.64451 30.40907 
18.69186 11.64195 30.40285 
0.00000 0.00000 -0.10000 
CELLS 233 698
2 0 1
2 0 2
2 0 3
2 1 3
2 1 4
2 2 3
2 2 5
2 3 4
2 3 5
2 3 6
2 4 6
2 5 6
2 7 8
2 7 9
2 7 10
2 8 10
2 8 11
2 9 10
2 9 12
2 10 11
2 10 12
2 10 13
2 11 13
2 12 13
2 14 15
2 14 16
2 14 17
2 15 17
2 15 18
2 16 17
2 16 19
2 17 18
2 17 19
2 17 20
2 18 20
2 19 20
2 21 22
2 21 23
2 21 24
2 22 24
2 22 25
2 23 24
2 23 26
2 24 25
2 24 26
2 24 27
2 25 27
2 26 27
2 28 29
2 28 30
2 28 31
2 29 31
2 29 32
2 30 31
2 30 33
2 31 32
2 31 33
2 31 34
2 32 34
2 33 34
2 0 1
2 0 2
2 0 3
2 0 7
2 0 8
2 0 9
2 0 10
2 1 3
2 1 4
2 1 7
2 1 8
2 1 10
2 1 11
2 2 3
2 2 5
2 2 7
2 2 9
2 2 10
2 2 12
2 3 4
2 3 5
2 3 6
2 3 7
2 3 8
2 3 9
2 3 10
2 3 11
2 3 12
2 3 13
2 4 6
2 4 8
2 4 10
2 4 11
2 4 13
2 5 6
2 5 9
2 5 10
2 5 12
2 5 13
2 6 10
2 6 11
2 6 12
2 6 13
2 7 8
2 7 9
2 7 10
2 7 14
2 7 15
2 7 16
2 7 17
2 8 10
2 8 11
2 8 14
2 8 15
2 8 17
2 8 18
2 9 10
2 9 12
2 9 14
2 9 16
2 9 17
2 9 19
2 10 11
2 10 12
2 10 13
2 10 14
2 10 15
2 10 16
2 10 17
2 10 18
2 10 19
2 10 20
2 11 13
2 11 15
2 11 17
2 11 18
2 11 20
2 12 13
2 12 16
2 12 17
2 12 19
2 12 20
2 13 17
2 13 18
2 13 19
2 13 20
2 14 15
2 14 16
2 14 17
2 14 21
2 14 22
2 14 23
2 14 24
2 15 17
2 15 18
2 15 21
2 15 22
2 15 24
2 15 25
2 16 17
2 16 19
2 16 21
2 16 23
2 16 24
2 16 26
2 17 18
2 17 19
2 17 20
2 17 21
2 17 22
2 17 23
2 17 24
2 17 25
2 17 26
2 17 27
2 18 20
2 18 22
2 18 24
2 18 25
2 18 27
2 19 20
2 19 23
2 19 24
2 19 26
2 19 27
2 20 24
2 20 25
2 20 26
2 20 27
2 21 22
2 21 23
2 21 24
2 21 28
2 21 29
2 21 30
2 21 31
2 22 24
2 22 25
2 22 28
2 22 29
2 22 31
2 22 32
2 23 24
2 23 26
2 23 28
2 23 30
2 23 31
2 23 33
2 24 25
2 24 26
2 24 27
2 24 28
2 24 29
2 24 30
2 24 31
2 24 32
2 24 33
2 24 34
2 25 27
2 25 29
2 25 31
2 25 32
2 25 34
2 26 27
2 26 30
2 26 31
2 26 33
2 26 34
2 27 31
2 27 32
2 27 33
2 27 34
1 35
CELL_TYPES 233
3
3
3
3
3
3
3
3
3
3
3
3
3
3
3
3
3
3
3
3
3
3
3
3
3
3
3
3
3
3
3
3
3
3
3
3
3
3
3
3
3
3
3
3
3
3
3
3
3
3
3
3
3
3
3
3
3
3
3
3
3
3
3
3
3
3
3
3
3
3
3
3
3
3
3
3
3
3
3
3
3
3
3
3
3
3
3
3
3
3
3
3
3
3
3
3
3
3
3
3
3
3
3
3
3
3
3
3
3
3
3
3
3
3
3
3
3
3
3
3
3
3
3
3
3
3
3
3
3
3
3
3
3
3
3
3
3
3
3
3
3
3
3
3
3
3
3
3
3
3
3
3
3
3
3
3
3
3
3
3
3
3
3
3
3
3
3
3
3
3
3
3
3
3
3
3
3
3
3
3
3
3
3
3
3
3
3
3
3
3
3
3
3
3
3
3
3
3
3
3
3
3
3
3
3
3
3
3
3
3
3
3
3
3
3
3
3
3
3
3
3
3
3
3
3
3
3
3
3
3
3
3
1
CELL_DATA 233
SCALARS Strain double 1
LOOKUP_TABLE default
-0.00141
-0.00628
0.00307
0.00313
-0.00631
0.00097
-0.00631
0.00097
0.00313
0.00307
-0.00628
-0.00141
-0.00026
0.00079
0.00553
0.00552
0.00082
0.00227
0.00082
0.00227
0.00552
0.00553
0.00079
-0.00026
0.00070
0.00689
0.00640
0.00638
0.00691
0.00614
0.00691
0.00614
0.00638
0.00640
0.00689
0.00070
-0.00045
0.00442
0.00550
0.00548
0.00444
0.00087
0.00444
0.00087
0.00548
0.00550
0.00442
-0.00045
0.00048
0.00587
0.00217
0.00222
0.00590
-0.00166
0.00590
-0.00166
0.00222
0.00217
0.00587
0.00048
-0.00122
0.00180
-0.00017
0.00296
-0.00055
0.00103
0.00022
-0.00011
0.00177
-0.00058
0.00207
0.00023
0.00099
0.00065
0.00177
0.00015
0.00280
0.00142
0.00013
0.00065
-0.00011
-0.00017
-0.00170
-0.00171
-0.00142
-0.00024
-0.00142
-0.00171
-0.00170
0.00180
0.00013
0.00142
0.00280
0.00015
-0.00122
0.00099
0.00023
0.00207
-0.00058
0.00022
0.00103
-0.00055
0.00296
-0.00021
-0.00092
-0.00151
0.00422
0.00008
-0.00151
-0.00117
-0.00153
-0.00089
0.00006
0.00383
-0.00120
-0.00149
-0.00081
-0.00089
-0.00121
0.00559
0.00008
-0.00121
-0.00081
-0.00153
-0.00151
-0.00226
-0.00230
-0.00256
0.00335
-0.00256
-0.00230
-0.00226
-0.00092
-0.00121
0.00008
0.00559
-0.00121
-0.00021
-0.00149
-0.00120
0.00383
0.00006
-0.00117
-0.00151
0.00008
0.00422
-0.00017
-0.00288
-0.00266
0.00421
0.00006
-0.00211
-0.00212
-0.00268
-0.00286
0.00009
0.00403
-0.00211
-0.00206
-0.00265
-0.00286
-0.00118
0.00258
-0.00156
-0.00121
-0.00265
-0.00268
-0.00266
-0.00176
-0.00181
-0.00056
-0.00228
-0.00056
-0.00181
-0.00176
-0.00288
-0.00121
-0.00156
0.00258
-0.00118
-0.00017
-0.00206
-0.00211
0.00403
0.00009
-0.00212
-0.00211
0.00006
0.00421
-0.00045
-0.00164
-0.00176
0.00541
0.00065
-0.00212
-0.00183
-0.00178
-0.00162
0.00073
0.00516
-0.00179
-0.00205
0.00024
-0.00162
-0.00315
0.00602
0.00091
-0.00322
0.00024
-0.00178
-0.00176
-0.00289
-0.00293
-0.00048
0.00430
-0.00048
-0.00293
-0.00289
-0.00164
-0.00322
0.00091
0.00602
-0.00315
-0.00045
-0.00205
-0.00179
0.00516
0.00073
-0.00183
-0.00212
0.00065
0.00541
0.10000
