# vtk DataFile Version 3.0
Point representing Sub_cellular elem model
ASCII

DATASET UNSTRUCTURED_GRID
POINTS 36 float
-39.82475 -23.05984 64.17368 
-39.74465 23.03593 62.97747 
0.07934 -42.61054 69.93851 
-0.00000 0.00000 77.09673 
-0.07934 42.61054 69.93851 
39.74465 -23.03593 62.97747 
39.82475 23.05984 64.17368 
-32.33097 -20.80084 56.59541 
-32.24531 20.70620 56.27499 
-0.02255 -35.53220 60.96981 
-0.00000 0.00000 67.27394 
0.02255 35.53220 60.96981 
32.24531 -20.70620 56.27499 
32.33097 20.80084 56.59541 
-26.17889 -17.66702 47.40293 
-26.13663 17.62981 47.38276 
-0.03329 -28.58735 50.71121 
-0.00000 0.00000 55.86364 
0.03329 28.58735 50.71121 
26.13663 -17.62981 47.38276 
26.17889 17.66702 47.40293 
-21.80187 -14.51548 37.08326 
-21.79023 14.52760 37.15184 
-0.02714 -25.40499 39.83957 
-0.00000 0.00000 45.80701 
0.02714 25.40499 39.83957 
21.79023 -14.52760 37.15184 
21.80187 14.51548 37.08326 
-14.28406 -11.73655 27.89384 
-14.31672 11.78553 28.01208 
-0.01925 -18.90426 29.41031 
-0.00000 0.00000 34.06677 
0.01925 18.90426 29.41031 
14.31672 -11.78553 28.01208 
14.28406 11.73655 27.89384 
0.00000 0.00000 -0.10000 
CELLS 233 698
2 0 1
2 0 2
2 0 3
2 1 3
2 1 4
2 2 3
2 2 5
2 3 4
2 3 5
2 3 6
2 4 6
2 5 6
2 7 8
2 7 9
2 7 10
2 8 10
2 8 11
2 9 10
2 9 12
2 10 11
2 10 12
2 10 13
2 11 13
2 12 13
2 14 15
2 14 16
2 14 17
2 15 17
2 15 18
2 16 17
2 16 19
2 17 18
2 17 19
2 17 20
2 18 20
2 19 20
2 21 22
2 21 23
2 21 24
2 22 24
2 22 25
2 23 24
2 23 26
2 24 25
2 24 26
2 24 27
2 25 27
2 26 27
2 28 29
2 28 30
2 28 31
2 29 31
2 29 32
2 30 31
2 30 33
2 31 32
2 31 33
2 31 34
2 32 34
2 33 34
2 0 1
2 0 2
2 0 3
2 0 7
2 0 8
2 0 9
2 0 10
2 1 3
2 1 4
2 1 7
2 1 8
2 1 10
2 1 11
2 2 3
2 2 5
2 2 7
2 2 9
2 2 10
2 2 12
2 3 4
2 3 5
2 3 6
2 3 7
2 3 8
2 3 9
2 3 10
2 3 11
2 3 12
2 3 13
2 4 6
2 4 8
2 4 10
2 4 11
2 4 13
2 5 6
2 5 9
2 5 10
2 5 12
2 5 13
2 6 10
2 6 11
2 6 12
2 6 13
2 7 8
2 7 9
2 7 10
2 7 14
2 7 15
2 7 16
2 7 17
2 8 10
2 8 11
2 8 14
2 8 15
2 8 17
2 8 18
2 9 10
2 9 12
2 9 14
2 9 16
2 9 17
2 9 19
2 10 11
2 10 12
2 10 13
2 10 14
2 10 15
2 10 16
2 10 17
2 10 18
2 10 19
2 10 20
2 11 13
2 11 15
2 11 17
2 11 18
2 11 20
2 12 13
2 12 16
2 12 17
2 12 19
2 12 20
2 13 17
2 13 18
2 13 19
2 13 20
2 14 15
2 14 16
2 14 17
2 14 21
2 14 22
2 14 23
2 14 24
2 15 17
2 15 18
2 15 21
2 15 22
2 15 24
2 15 25
2 16 17
2 16 19
2 16 21
2 16 23
2 16 24
2 16 26
2 17 18
2 17 19
2 17 20
2 17 21
2 17 22
2 17 23
2 17 24
2 17 25
2 17 26
2 17 27
2 18 20
2 18 22
2 18 24
2 18 25
2 18 27
2 19 20
2 19 23
2 19 24
2 19 26
2 19 27
2 20 24
2 20 25
2 20 26
2 20 27
2 21 22
2 21 23
2 21 24
2 21 28
2 21 29
2 21 30
2 21 31
2 22 24
2 22 25
2 22 28
2 22 29
2 22 31
2 22 32
2 23 24
2 23 26
2 23 28
2 23 30
2 23 31
2 23 33
2 24 25
2 24 26
2 24 27
2 24 28
2 24 29
2 24 30
2 24 31
2 24 32
2 24 33
2 24 34
2 25 27
2 25 29
2 25 31
2 25 32
2 25 34
2 26 27
2 26 30
2 26 31
2 26 33
2 26 34
2 27 31
2 27 32
2 27 33
2 27 34
1 35
CELL_TYPES 233
3
3
3
3
3
3
3
3
3
3
3
3
3
3
3
3
3
3
3
3
3
3
3
3
3
3
3
3
3
3
3
3
3
3
3
3
3
3
3
3
3
3
3
3
3
3
3
3
3
3
3
3
3
3
3
3
3
3
3
3
3
3
3
3
3
3
3
3
3
3
3
3
3
3
3
3
3
3
3
3
3
3
3
3
3
3
3
3
3
3
3
3
3
3
3
3
3
3
3
3
3
3
3
3
3
3
3
3
3
3
3
3
3
3
3
3
3
3
3
3
3
3
3
3
3
3
3
3
3
3
3
3
3
3
3
3
3
3
3
3
3
3
3
3
3
3
3
3
3
3
3
3
3
3
3
3
3
3
3
3
3
3
3
3
3
3
3
3
3
3
3
3
3
3
3
3
3
3
3
3
3
3
3
3
3
3
3
3
3
3
3
3
3
3
3
3
3
3
3
3
3
3
3
3
3
3
3
3
3
3
3
3
3
3
3
3
3
3
3
3
3
3
3
3
3
3
3
3
3
3
3
3
1
CELL_DATA 233
SCALARS Strain double 1
LOOKUP_TABLE default
-0.04492
-0.15692
0.10672
0.11273
-0.15752
0.02812
-0.15752
0.02812
0.11273
0.10672
-0.15692
-0.04492
-0.00870
0.02166
0.21903
0.21807
0.02289
0.07883
0.02289
0.07883
0.21807
0.21903
0.02166
-0.00870
0.01796
0.29470
0.27281
0.27091
0.29646
0.26418
0.29646
0.26418
0.27091
0.27281
0.29470
0.01796
-0.01400
0.15685
0.20756
0.20649
0.15803
0.02189
0.15803
0.02189
0.20649
0.20756
0.15685
-0.01400
0.01062
0.27547
0.07839
0.07929
0.27792
-0.05401
0.27792
-0.05401
0.07929
0.07839
0.27547
0.01062
-0.03928
0.05571
-0.00411
0.08945
-0.01717
0.02384
0.00482
0.00130
0.05497
-0.02151
0.03243
0.00514
0.02137
0.01800
0.05497
0.01032
0.14259
0.04489
0.00943
0.01800
0.00130
-0.00411
-0.05083
-0.04989
-0.04501
-0.01772
-0.04501
-0.04989
-0.05083
0.05571
0.00943
0.04489
0.14259
0.01032
-0.03928
0.02137
0.00514
0.03243
-0.02151
0.00482
0.02384
-0.01717
0.08945
-0.00736
-0.03249
-0.04583
0.14965
0.00314
-0.05148
-0.03575
-0.04658
-0.03133
-0.00067
0.12183
-0.03896
-0.05290
-0.02410
-0.03133
-0.03128
0.23883
0.00917
-0.03046
-0.02410
-0.04658
-0.04583
-0.06427
-0.06519
-0.07119
0.14103
-0.07119
-0.06519
-0.06427
-0.03249
-0.03046
0.00917
0.23883
-0.03128
-0.00736
-0.05290
-0.03896
0.12183
-0.00067
-0.03575
-0.05148
0.00314
0.14965
-0.00951
-0.09476
-0.08249
0.16441
0.00485
-0.06734
-0.06736
-0.08386
-0.09352
0.00370
0.15406
-0.06903
-0.06682
-0.07823
-0.09352
-0.03495
0.13278
-0.04417
-0.03484
-0.07823
-0.08386
-0.08249
-0.04948
-0.05072
-0.01018
0.00566
-0.01018
-0.05072
-0.04948
-0.09476
-0.03484
-0.04417
0.13278
-0.03495
-0.00951
-0.06682
-0.06903
0.15406
0.00370
-0.06736
-0.06734
0.00485
0.16441
-0.01400
-0.05937
-0.06277
0.21938
0.02792
-0.06795
-0.05934
-0.06360
-0.05841
0.02903
0.21206
-0.05916
-0.06616
0.00187
-0.05841
-0.08482
0.22894
0.03295
-0.08625
0.00187
-0.06360
-0.06277
-0.08156
-0.08304
-0.00781
0.17402
-0.00781
-0.08304
-0.08156
-0.05937
-0.08625
0.03295
0.22894
-0.08482
-0.01400
-0.06616
-0.05916
0.21206
0.02903
-0.05934
-0.06795
0.02792
0.21938
0.10000
