# vtk DataFile Version 3.0
Point representing Sub_cellular elem model
ASCII

DATASET UNSTRUCTURED_GRID
POINTS 36 float
-39.80320 -23.08924 64.14865 
-39.73020 23.06595 63.03432 
0.07328 -42.56652 69.75336 
-0.00000 0.00000 77.10152 
-0.07328 42.56652 69.75336 
39.73020 -23.06595 63.03432 
39.80320 23.08924 64.14865 
-32.38465 -20.80228 56.53254 
-32.30528 20.71288 56.23802 
-0.02203 -35.53571 60.84147 
-0.00000 0.00000 67.26303 
0.02203 35.53571 60.84147 
32.30528 -20.71288 56.23802 
32.38465 20.80228 56.53254 
-26.26636 -17.67250 47.37291 
-26.22757 17.63822 47.36030 
-0.03142 -28.64348 50.66129 
-0.00000 0.00000 55.90180 
0.03142 28.64348 50.66129 
26.22757 -17.63822 47.36030 
26.26636 17.67250 47.37291 
-21.87058 -14.52143 37.12302 
-21.86103 14.53425 37.19417 
-0.02570 -25.39932 39.86593 
-0.00000 0.00000 45.86795 
0.02570 25.39932 39.86593 
21.86103 -14.53425 37.19417 
21.87058 14.52143 37.12302 
-14.42876 -11.73478 27.97749 
-14.46322 11.78448 28.09673 
-0.01766 -18.93971 29.50825 
-0.00000 0.00000 34.19217 
0.01766 18.93971 29.50825 
14.46322 -11.78448 28.09673 
14.42876 11.73478 27.97749 
0.00000 0.00000 -0.10000 
CELLS 233 698
2 0 1
2 0 2
2 0 3
2 1 3
2 1 4
2 2 3
2 2 5
2 3 4
2 3 5
2 3 6
2 4 6
2 5 6
2 7 8
2 7 9
2 7 10
2 8 10
2 8 11
2 9 10
2 9 12
2 10 11
2 10 12
2 10 13
2 11 13
2 12 13
2 14 15
2 14 16
2 14 17
2 15 17
2 15 18
2 16 17
2 16 19
2 17 18
2 17 19
2 17 20
2 18 20
2 19 20
2 21 22
2 21 23
2 21 24
2 22 24
2 22 25
2 23 24
2 23 26
2 24 25
2 24 26
2 24 27
2 25 27
2 26 27
2 28 29
2 28 30
2 28 31
2 29 31
2 29 32
2 30 31
2 30 33
2 31 32
2 31 33
2 31 34
2 32 34
2 33 34
2 0 1
2 0 2
2 0 3
2 0 7
2 0 8
2 0 9
2 0 10
2 1 3
2 1 4
2 1 7
2 1 8
2 1 10
2 1 11
2 2 3
2 2 5
2 2 7
2 2 9
2 2 10
2 2 12
2 3 4
2 3 5
2 3 6
2 3 7
2 3 8
2 3 9
2 3 10
2 3 11
2 3 12
2 3 13
2 4 6
2 4 8
2 4 10
2 4 11
2 4 13
2 5 6
2 5 9
2 5 10
2 5 12
2 5 13
2 6 10
2 6 11
2 6 12
2 6 13
2 7 8
2 7 9
2 7 10
2 7 14
2 7 15
2 7 16
2 7 17
2 8 10
2 8 11
2 8 14
2 8 15
2 8 17
2 8 18
2 9 10
2 9 12
2 9 14
2 9 16
2 9 17
2 9 19
2 10 11
2 10 12
2 10 13
2 10 14
2 10 15
2 10 16
2 10 17
2 10 18
2 10 19
2 10 20
2 11 13
2 11 15
2 11 17
2 11 18
2 11 20
2 12 13
2 12 16
2 12 17
2 12 19
2 12 20
2 13 17
2 13 18
2 13 19
2 13 20
2 14 15
2 14 16
2 14 17
2 14 21
2 14 22
2 14 23
2 14 24
2 15 17
2 15 18
2 15 21
2 15 22
2 15 24
2 15 25
2 16 17
2 16 19
2 16 21
2 16 23
2 16 24
2 16 26
2 17 18
2 17 19
2 17 20
2 17 21
2 17 22
2 17 23
2 17 24
2 17 25
2 17 26
2 17 27
2 18 20
2 18 22
2 18 24
2 18 25
2 18 27
2 19 20
2 19 23
2 19 24
2 19 26
2 19 27
2 20 24
2 20 25
2 20 26
2 20 27
2 21 22
2 21 23
2 21 24
2 21 28
2 21 29
2 21 30
2 21 31
2 22 24
2 22 25
2 22 28
2 22 29
2 22 31
2 22 32
2 23 24
2 23 26
2 23 28
2 23 30
2 23 31
2 23 33
2 24 25
2 24 26
2 24 27
2 24 28
2 24 29
2 24 30
2 24 31
2 24 32
2 24 33
2 24 34
2 25 27
2 25 29
2 25 31
2 25 32
2 25 34
2 26 27
2 26 30
2 26 31
2 26 33
2 26 34
2 27 31
2 27 32
2 27 33
2 27 34
1 35
CELL_TYPES 233
3
3
3
3
3
3
3
3
3
3
3
3
3
3
3
3
3
3
3
3
3
3
3
3
3
3
3
3
3
3
3
3
3
3
3
3
3
3
3
3
3
3
3
3
3
3
3
3
3
3
3
3
3
3
3
3
3
3
3
3
3
3
3
3
3
3
3
3
3
3
3
3
3
3
3
3
3
3
3
3
3
3
3
3
3
3
3
3
3
3
3
3
3
3
3
3
3
3
3
3
3
3
3
3
3
3
3
3
3
3
3
3
3
3
3
3
3
3
3
3
3
3
3
3
3
3
3
3
3
3
3
3
3
3
3
3
3
3
3
3
3
3
3
3
3
3
3
3
3
3
3
3
3
3
3
3
3
3
3
3
3
3
3
3
3
3
3
3
3
3
3
3
3
3
3
3
3
3
3
3
3
3
3
3
3
3
3
3
3
3
3
3
3
3
3
3
3
3
3
3
3
3
3
3
3
3
3
3
3
3
3
3
3
3
3
3
3
3
3
3
3
3
3
3
3
3
3
3
3
3
3
3
1
CELL_DATA 233
SCALARS Strain double 1
LOOKUP_TABLE default
-0.04356
-0.15308
0.10301
0.10860
-0.15367
0.02752
-0.15367
0.02752
0.10860
0.10301
-0.15308
-0.04356
-0.00847
0.02108
0.21039
0.20947
0.02227
0.07603
0.02227
0.07603
0.20947
0.21039
0.02108
-0.00847
0.01749
0.28208
0.26119
0.25941
0.28372
0.25283
0.28372
0.25283
0.25941
0.26119
0.28208
0.01749
-0.01357
0.15128
0.19963
0.19863
0.15239
0.02135
0.15239
0.02135
0.19863
0.19963
0.15128
-0.01357
0.01050
0.26231
0.07534
0.07631
0.26460
-0.05202
0.26460
-0.05202
0.07631
0.07534
0.26231
0.01050
-0.03808
0.05390
-0.00402
0.08752
-0.01666
0.02335
0.00475
0.00103
0.05316
-0.02071
0.03371
0.00506
0.02105
0.01773
0.05316
0.00968
0.13518
0.04356
0.00884
0.01773
0.00103
-0.00402
-0.04925
-0.04842
-0.04358
-0.01615
-0.04358
-0.04842
-0.04925
0.05390
0.00884
0.04356
0.13518
0.00968
-0.03808
0.02105
0.00506
0.03371
-0.02071
0.00475
0.02335
-0.01666
0.08752
-0.00717
-0.03136
-0.04444
0.14511
0.00300
-0.04969
-0.03464
-0.04517
-0.03024
-0.00052
0.11895
-0.03762
-0.05095
-0.02345
-0.03024
-0.03052
0.22939
0.00861
-0.02977
-0.02345
-0.04517
-0.04444
-0.06241
-0.06333
-0.06928
0.13612
-0.06928
-0.06333
-0.06241
-0.03136
-0.02977
0.00861
0.22939
-0.03052
-0.00717
-0.05095
-0.03762
0.11895
-0.00052
-0.03464
-0.04969
0.00300
0.14511
-0.00912
-0.09162
-0.07995
0.15893
0.00461
-0.06523
-0.06526
-0.08124
-0.09045
0.00363
0.14913
-0.06679
-0.06465
-0.07597
-0.09045
-0.03379
0.12722
-0.04296
-0.03377
-0.07597
-0.08124
-0.07995
-0.04805
-0.04929
-0.01013
0.00339
-0.01013
-0.04929
-0.04805
-0.09162
-0.03377
-0.04296
0.12722
-0.03379
-0.00912
-0.06465
-0.06679
0.14913
0.00363
-0.06526
-0.06523
0.00461
0.15893
-0.01357
-0.05723
-0.06059
0.21157
0.02686
-0.06589
-0.05753
-0.06138
-0.05632
0.02804
0.20439
-0.05728
-0.06413
0.00196
-0.05632
-0.08249
0.22069
0.03187
-0.08395
0.00196
-0.06138
-0.06059
-0.07928
-0.08072
-0.00771
0.16758
-0.00771
-0.08072
-0.07928
-0.05723
-0.08395
0.03187
0.22069
-0.08249
-0.01357
-0.06413
-0.05728
0.20439
0.02804
-0.05753
-0.06589
0.02686
0.21157
0.10000
