# vtk DataFile Version 3.0
Point representing Sub_cellular elem model
ASCII

DATASET UNSTRUCTURED_GRID
POINTS 36 float
-39.88033 -22.97805 64.23622 
-39.77450 22.95261 62.76677 
0.10042 -42.72375 70.50465 
-0.00000 0.00000 77.08503 
-0.10042 42.72375 70.50465 
39.77450 -22.95261 62.76677 
39.88033 22.97805 64.23622 
-32.17673 -20.79906 56.77630 
-32.06992 20.68751 56.36891 
-0.02386 -35.52275 61.34443 
-0.00000 0.00000 67.31379 
0.02386 35.52275 61.34443 
32.06992 -20.68751 56.36891 
32.17673 20.79906 56.77630 
-25.93132 -17.65221 47.49126 
-25.87762 17.60519 47.44477 
-0.03930 -28.43022 50.85305 
-0.00000 0.00000 55.76429 
0.03930 28.43022 50.85305 
25.87762 -17.60519 47.44477 
25.93132 17.65221 47.49126 
-21.60696 -14.49918 36.97427 
-21.58844 14.50860 37.03333 
-0.03166 -25.41924 39.76400 
-0.00000 0.00000 45.63530 
0.03166 25.41924 39.76400 
21.58844 -14.50860 37.03333 
21.60696 14.49918 36.97427 
-13.87664 -11.74106 27.65762 
-13.90279 11.78709 27.77146 
-0.02433 -18.80185 29.13011 
-0.00000 0.00000 33.71066 
0.02433 18.80185 29.13011 
13.90279 -11.78709 27.77146 
13.87664 11.74106 27.65762 
0.00000 0.00000 -0.10000 
CELLS 233 698
2 0 1
2 0 2
2 0 3
2 1 3
2 1 4
2 2 3
2 2 5
2 3 4
2 3 5
2 3 6
2 4 6
2 5 6
2 7 8
2 7 9
2 7 10
2 8 10
2 8 11
2 9 10
2 9 12
2 10 11
2 10 12
2 10 13
2 11 13
2 12 13
2 14 15
2 14 16
2 14 17
2 15 17
2 15 18
2 16 17
2 16 19
2 17 18
2 17 19
2 17 20
2 18 20
2 19 20
2 21 22
2 21 23
2 21 24
2 22 24
2 22 25
2 23 24
2 23 26
2 24 25
2 24 26
2 24 27
2 25 27
2 26 27
2 28 29
2 28 30
2 28 31
2 29 31
2 29 32
2 30 31
2 30 33
2 31 32
2 31 33
2 31 34
2 32 34
2 33 34
2 0 1
2 0 2
2 0 3
2 0 7
2 0 8
2 0 9
2 0 10
2 1 3
2 1 4
2 1 7
2 1 8
2 1 10
2 1 11
2 2 3
2 2 5
2 2 7
2 2 9
2 2 10
2 2 12
2 3 4
2 3 5
2 3 6
2 3 7
2 3 8
2 3 9
2 3 10
2 3 11
2 3 12
2 3 13
2 4 6
2 4 8
2 4 10
2 4 11
2 4 13
2 5 6
2 5 9
2 5 10
2 5 12
2 5 13
2 6 10
2 6 11
2 6 12
2 6 13
2 7 8
2 7 9
2 7 10
2 7 14
2 7 15
2 7 16
2 7 17
2 8 10
2 8 11
2 8 14
2 8 15
2 8 17
2 8 18
2 9 10
2 9 12
2 9 14
2 9 16
2 9 17
2 9 19
2 10 11
2 10 12
2 10 13
2 10 14
2 10 15
2 10 16
2 10 17
2 10 18
2 10 19
2 10 20
2 11 13
2 11 15
2 11 17
2 11 18
2 11 20
2 12 13
2 12 16
2 12 17
2 12 19
2 12 20
2 13 17
2 13 18
2 13 19
2 13 20
2 14 15
2 14 16
2 14 17
2 14 21
2 14 22
2 14 23
2 14 24
2 15 17
2 15 18
2 15 21
2 15 22
2 15 24
2 15 25
2 16 17
2 16 19
2 16 21
2 16 23
2 16 24
2 16 26
2 17 18
2 17 19
2 17 20
2 17 21
2 17 22
2 17 23
2 17 24
2 17 25
2 17 26
2 17 27
2 18 20
2 18 22
2 18 24
2 18 25
2 18 27
2 19 20
2 19 23
2 19 24
2 19 26
2 19 27
2 20 24
2 20 25
2 20 26
2 20 27
2 21 22
2 21 23
2 21 24
2 21 28
2 21 29
2 21 30
2 21 31
2 22 24
2 22 25
2 22 28
2 22 29
2 22 31
2 22 32
2 23 24
2 23 26
2 23 28
2 23 30
2 23 31
2 23 33
2 24 25
2 24 26
2 24 27
2 24 28
2 24 29
2 24 30
2 24 31
2 24 32
2 24 33
2 24 34
2 25 27
2 25 29
2 25 31
2 25 32
2 25 34
2 26 27
2 26 30
2 26 31
2 26 33
2 26 34
2 27 31
2 27 32
2 27 33
2 27 34
1 35
CELL_TYPES 233
3
3
3
3
3
3
3
3
3
3
3
3
3
3
3
3
3
3
3
3
3
3
3
3
3
3
3
3
3
3
3
3
3
3
3
3
3
3
3
3
3
3
3
3
3
3
3
3
3
3
3
3
3
3
3
3
3
3
3
3
3
3
3
3
3
3
3
3
3
3
3
3
3
3
3
3
3
3
3
3
3
3
3
3
3
3
3
3
3
3
3
3
3
3
3
3
3
3
3
3
3
3
3
3
3
3
3
3
3
3
3
3
3
3
3
3
3
3
3
3
3
3
3
3
3
3
3
3
3
3
3
3
3
3
3
3
3
3
3
3
3
3
3
3
3
3
3
3
3
3
3
3
3
3
3
3
3
3
3
3
3
3
3
3
3
3
3
3
3
3
3
3
3
3
3
3
3
3
3
3
3
3
3
3
3
3
3
3
3
3
3
3
3
3
3
3
3
3
3
3
3
3
3
3
3
3
3
3
3
3
3
3
3
3
3
3
3
3
3
3
3
3
3
3
3
3
3
3
3
3
3
3
1
CELL_DATA 233
SCALARS Strain double 1
LOOKUP_TABLE default
-0.04866
-0.16733
0.11722
0.12461
-0.16791
0.02948
-0.16791
0.02948
0.12461
0.11722
-0.16733
-0.04866
-0.00929
0.02323
0.24403
0.24295
0.02459
0.08680
0.02459
0.08680
0.24295
0.24403
0.02323
-0.00929
0.01928
0.33172
0.30686
0.30458
0.33391
0.29748
0.33391
0.29748
0.30458
0.30686
0.33172
0.01928
-0.01519
0.17273
0.23041
0.22915
0.17412
0.02336
0.17412
0.02336
0.22915
0.23041
0.17273
-0.01519
0.01088
0.31492
0.08719
0.08784
0.31791
-0.05972
0.31791
-0.05972
0.08784
0.08719
0.31492
0.01088
-0.04255
0.06092
-0.00438
0.09427
-0.01855
0.02507
0.00494
0.00221
0.06018
-0.02383
0.02676
0.00532
0.02205
0.01847
0.06018
0.01234
0.16525
0.04854
0.01130
0.01847
0.00221
-0.00438
-0.05531
-0.05400
-0.04909
-0.02288
-0.04909
-0.05400
-0.05531
0.06092
0.01130
0.04854
0.16525
0.01234
-0.04255
0.02205
0.00532
0.02676
-0.02383
0.00494
0.02507
-0.01855
0.09427
-0.00783
-0.03572
-0.04974
0.16241
0.00361
-0.05660
-0.03886
-0.05056
-0.03444
-0.00117
0.12909
-0.04284
-0.05859
-0.02590
-0.03444
-0.03329
0.26639
0.01089
-0.03220
-0.02590
-0.05056
-0.04974
-0.06945
-0.07032
-0.07645
0.15495
-0.07645
-0.07032
-0.06945
-0.03572
-0.03220
0.01089
0.26639
-0.03329
-0.00783
-0.05859
-0.04284
0.12909
-0.00117
-0.03886
-0.05660
0.00361
0.16241
-0.01062
-0.10366
-0.08963
0.18003
0.00559
-0.07328
-0.07322
-0.09122
-0.10219
0.00386
0.16783
-0.07539
-0.07298
-0.08447
-0.10219
-0.03819
0.14905
-0.04747
-0.03780
-0.08447
-0.09122
-0.08963
-0.05341
-0.05467
-0.01020
0.01290
-0.01020
-0.05467
-0.05341
-0.10366
-0.03780
-0.04747
0.14905
-0.03819
-0.01062
-0.07298
-0.07539
0.16783
0.00386
-0.07322
-0.07328
0.00559
0.18003
-0.01519
-0.06549
-0.06895
0.24164
0.03098
-0.07367
-0.06434
-0.06991
-0.06439
0.03185
0.23394
-0.06444
-0.07185
0.00157
-0.06439
-0.09124
0.25248
0.03602
-0.09255
0.00157
-0.06991
-0.06895
-0.08785
-0.08944
-0.00805
0.19246
-0.00805
-0.08944
-0.08785
-0.06549
-0.09255
0.03602
0.25248
-0.09124
-0.01519
-0.07185
-0.06444
0.23394
0.03185
-0.06434
-0.07367
0.03098
0.24164
0.10000
