# vtk DataFile Version 3.0
Point representing Sub_cellular elem model
ASCII

DATASET UNSTRUCTURED_GRID
POINTS 36 float
-39.95996 -22.47741 64.45420 
-39.95708 22.61004 62.48275 
0.18267 -42.85332 70.65152 
0.00000 0.00000 77.69968 
-0.18267 42.85332 70.65152 
39.95708 -22.61004 62.48275 
39.95996 22.47741 64.45420 
-31.96826 -20.82271 56.97128 
-31.85490 20.72716 56.34568 
-0.00985 -35.19408 61.59080 
0.00000 0.00000 67.61964 
0.00985 35.19408 61.59080 
31.85490 -20.72716 56.34568 
31.96826 20.82271 56.97128 
-25.80479 -17.64050 47.48776 
-25.72884 17.56545 47.34816 
-0.05091 -28.41485 50.82949 
0.00000 0.00000 55.96677 
0.05091 28.41485 50.82949 
25.72884 -17.56545 47.34816 
25.80479 17.64050 47.48776 
-21.40372 -14.40712 36.83702 
-21.36900 14.39137 36.84699 
-0.03878 -25.44821 39.74928 
0.00000 0.00000 46.03037 
0.03878 25.44821 39.74928 
21.36900 -14.39137 36.84699 
21.40372 14.40712 36.83702 
-12.81411 -11.63021 27.53296 
-12.80880 11.64492 27.60428 
-0.03133 -17.91544 28.94889 
0.00000 0.00000 33.06482 
0.03133 17.91544 28.94889 
12.80880 -11.64492 27.60428 
12.81411 11.63021 27.53296 
0.00000 0.00000 -0.10000 
CELLS 233 698
2 0 1
2 0 2
2 0 3
2 1 3
2 1 4
2 2 3
2 2 5
2 3 4
2 3 5
2 3 6
2 4 6
2 5 6
2 7 8
2 7 9
2 7 10
2 8 10
2 8 11
2 9 10
2 9 12
2 10 11
2 10 12
2 10 13
2 11 13
2 12 13
2 14 15
2 14 16
2 14 17
2 15 17
2 15 18
2 16 17
2 16 19
2 17 18
2 17 19
2 17 20
2 18 20
2 19 20
2 21 22
2 21 23
2 21 24
2 22 24
2 22 25
2 23 24
2 23 26
2 24 25
2 24 26
2 24 27
2 25 27
2 26 27
2 28 29
2 28 30
2 28 31
2 29 31
2 29 32
2 30 31
2 30 33
2 31 32
2 31 33
2 31 34
2 32 34
2 33 34
2 0 1
2 0 2
2 0 3
2 0 7
2 0 8
2 0 9
2 0 10
2 1 3
2 1 4
2 1 7
2 1 8
2 1 10
2 1 11
2 2 3
2 2 5
2 2 7
2 2 9
2 2 10
2 2 12
2 3 4
2 3 5
2 3 6
2 3 7
2 3 8
2 3 9
2 3 10
2 3 11
2 3 12
2 3 13
2 4 6
2 4 8
2 4 10
2 4 11
2 4 13
2 5 6
2 5 9
2 5 10
2 5 12
2 5 13
2 6 10
2 6 11
2 6 12
2 6 13
2 7 8
2 7 9
2 7 10
2 7 14
2 7 15
2 7 16
2 7 17
2 8 10
2 8 11
2 8 14
2 8 15
2 8 17
2 8 18
2 9 10
2 9 12
2 9 14
2 9 16
2 9 17
2 9 19
2 10 11
2 10 12
2 10 13
2 10 14
2 10 15
2 10 16
2 10 17
2 10 18
2 10 19
2 10 20
2 11 13
2 11 15
2 11 17
2 11 18
2 11 20
2 12 13
2 12 16
2 12 17
2 12 19
2 12 20
2 13 17
2 13 18
2 13 19
2 13 20
2 14 15
2 14 16
2 14 17
2 14 21
2 14 22
2 14 23
2 14 24
2 15 17
2 15 18
2 15 21
2 15 22
2 15 24
2 15 25
2 16 17
2 16 19
2 16 21
2 16 23
2 16 24
2 16 26
2 17 18
2 17 19
2 17 20
2 17 21
2 17 22
2 17 23
2 17 24
2 17 25
2 17 26
2 17 27
2 18 20
2 18 22
2 18 24
2 18 25
2 18 27
2 19 20
2 19 23
2 19 24
2 19 26
2 19 27
2 20 24
2 20 25
2 20 26
2 20 27
2 21 22
2 21 23
2 21 24
2 21 28
2 21 29
2 21 30
2 21 31
2 22 24
2 22 25
2 22 28
2 22 29
2 22 31
2 22 32
2 23 24
2 23 26
2 23 28
2 23 30
2 23 31
2 23 33
2 24 25
2 24 26
2 24 27
2 24 28
2 24 29
2 24 30
2 24 31
2 24 32
2 24 33
2 24 34
2 25 27
2 25 29
2 25 31
2 25 32
2 25 34
2 26 27
2 26 30
2 26 31
2 26 33
2 26 34
2 27 31
2 27 32
2 27 33
2 27 34
1 35
CELL_TYPES 233
3
3
3
3
3
3
3
3
3
3
3
3
3
3
3
3
3
3
3
3
3
3
3
3
3
3
3
3
3
3
3
3
3
3
3
3
3
3
3
3
3
3
3
3
3
3
3
3
3
3
3
3
3
3
3
3
3
3
3
3
3
3
3
3
3
3
3
3
3
3
3
3
3
3
3
3
3
3
3
3
3
3
3
3
3
3
3
3
3
3
3
3
3
3
3
3
3
3
3
3
3
3
3
3
3
3
3
3
3
3
3
3
3
3
3
3
3
3
3
3
3
3
3
3
3
3
3
3
3
3
3
3
3
3
3
3
3
3
3
3
3
3
3
3
3
3
3
3
3
3
3
3
3
3
3
3
3
3
3
3
3
3
3
3
3
3
3
3
3
3
3
3
3
3
3
3
3
3
3
3
3
3
3
3
3
3
3
3
3
3
3
3
3
3
3
3
3
3
3
3
3
3
3
3
3
3
3
3
3
3
3
3
3
3
3
3
3
3
3
3
3
3
3
3
3
3
3
3
3
3
3
3
1
CELL_DATA 233
SCALARS Strain double 1
LOOKUP_TABLE default
-0.01826
-0.16981
0.11251
0.10453
-0.16837
0.01828
-0.16837
0.01828
0.10453
0.11251
-0.16981
-0.01826
0.00092
0.04870
0.24328
0.23970
0.04900
0.10914
0.04900
0.10914
0.23970
0.24328
0.04870
0.00092
0.02443
0.36356
0.30873
0.30871
0.36317
0.28504
0.36317
0.28504
0.30871
0.30873
0.36356
0.02443
-0.00507
0.18166
0.23337
0.23309
0.18222
0.01616
0.18222
0.01616
0.23309
0.23337
0.18166
-0.00507
-0.01086
0.39419
0.13647
0.13627
0.39785
-0.03902
0.39785
-0.03902
0.13627
0.13647
0.39419
-0.01086
-0.05971
0.07065
-0.00570
0.10724
-0.02620
0.02847
0.00119
0.00771
0.06897
-0.03047
0.03370
0.00642
0.02573
0.02322
0.06897
0.01092
0.18658
0.05143
0.00831
0.02322
0.00771
-0.00570
-0.05410
-0.05031
-0.05272
0.00800
-0.05272
-0.05031
-0.05410
0.07065
0.00831
0.05143
0.18658
0.01092
-0.05971
0.02573
0.00642
0.03370
-0.03047
0.00119
0.02847
-0.02620
0.10724
-0.00625
-0.04419
-0.05276
0.17495
0.00472
-0.06166
-0.04293
-0.05200
-0.04307
-0.00095
0.13349
-0.04690
-0.06443
-0.03439
-0.04307
-0.03741
0.27187
0.00195
-0.03589
-0.03439
-0.05200
-0.05276
-0.06762
-0.06793
-0.07215
0.16529
-0.07215
-0.06793
-0.06762
-0.04419
-0.03589
0.00195
0.27187
-0.03741
-0.00625
-0.06443
-0.04690
0.13349
-0.00095
-0.04293
-0.06166
0.00472
0.17495
-0.01205
-0.10780
-0.09115
0.19692
0.00403
-0.07686
-0.07711
-0.09295
-0.10559
0.00077
0.18049
-0.08039
-0.07738
-0.08370
-0.10559
-0.04040
0.14704
-0.05036
-0.03869
-0.08370
-0.09295
-0.09115
-0.05273
-0.05379
-0.00557
-0.00636
-0.00557
-0.05379
-0.05273
-0.10780
-0.03869
-0.05036
0.14704
-0.04040
-0.01205
-0.07738
-0.08039
0.18049
0.00077
-0.07711
-0.07686
0.00403
0.19692
-0.02230
-0.06998
-0.07013
0.29638
0.03272
-0.08609
-0.06968
-0.07144
-0.06830
0.03225
0.28938
-0.07096
-0.08483
0.00630
-0.06830
-0.11043
0.31678
0.04322
-0.11069
0.00630
-0.07144
-0.07013
-0.09626
-0.09797
-0.01855
0.29655
-0.01855
-0.09797
-0.09626
-0.06998
-0.11069
0.04322
0.31678
-0.11043
-0.02230
-0.08483
-0.07096
0.28938
0.03225
-0.06968
-0.08609
0.03272
0.29638
0.10000
