# vtk DataFile Version 3.0
Point representing Sub_cellular elem model
ASCII

DATASET UNSTRUCTURED_GRID
POINTS 36 float
-39.69925 -23.21928 64.02059 
-39.64920 23.19898 63.19862 
0.05257 -42.35644 69.02057 
-0.00000 0.00000 77.12817 
-0.05257 42.35644 69.02057 
39.64920 -23.19898 63.19862 
39.69925 23.21928 64.02059 
-32.61342 -20.81215 56.26200 
-32.55629 20.74228 56.05850 
-0.01946 -35.55120 60.30194 
-0.00000 0.00000 67.23351 
0.01946 35.55120 60.30194 
32.55629 -20.74228 56.05850 
32.61342 20.81215 56.26200 
-26.64620 -17.69707 47.24796 
-26.61987 17.67318 47.26017 
-0.02444 -28.88989 50.44344 
-0.00000 0.00000 56.08522 
0.02444 28.88989 50.44344 
26.61987 -17.67318 47.26017 
26.64620 17.69707 47.24796 
-22.16810 -14.54821 37.30360 
-22.16594 14.56292 37.38208 
-0.02013 -25.37050 39.97879 
-0.00000 0.00000 46.13441 
0.02013 25.37050 39.97879 
22.16594 -14.56292 37.38208 
22.16810 14.54821 37.30360 
-15.06212 -11.72589 28.34342 
-15.10190 11.77707 28.46387 
-0.01170 -19.08900 29.92830 
-0.00000 0.00000 34.73439 
0.01170 19.08900 29.92830 
15.10190 -11.77707 28.46387 
15.06212 11.72589 28.34342 
0.00000 0.00000 -0.10000 
CELLS 233 698
2 0 1
2 0 2
2 0 3
2 1 3
2 1 4
2 2 3
2 2 5
2 3 4
2 3 5
2 3 6
2 4 6
2 5 6
2 7 8
2 7 9
2 7 10
2 8 10
2 8 11
2 9 10
2 9 12
2 10 11
2 10 12
2 10 13
2 11 13
2 12 13
2 14 15
2 14 16
2 14 17
2 15 17
2 15 18
2 16 17
2 16 19
2 17 18
2 17 19
2 17 20
2 18 20
2 19 20
2 21 22
2 21 23
2 21 24
2 22 24
2 22 25
2 23 24
2 23 26
2 24 25
2 24 26
2 24 27
2 25 27
2 26 27
2 28 29
2 28 30
2 28 31
2 29 31
2 29 32
2 30 31
2 30 33
2 31 32
2 31 33
2 31 34
2 32 34
2 33 34
2 0 1
2 0 2
2 0 3
2 0 7
2 0 8
2 0 9
2 0 10
2 1 3
2 1 4
2 1 7
2 1 8
2 1 10
2 1 11
2 2 3
2 2 5
2 2 7
2 2 9
2 2 10
2 2 12
2 3 4
2 3 5
2 3 6
2 3 7
2 3 8
2 3 9
2 3 10
2 3 11
2 3 12
2 3 13
2 4 6
2 4 8
2 4 10
2 4 11
2 4 13
2 5 6
2 5 9
2 5 10
2 5 12
2 5 13
2 6 10
2 6 11
2 6 12
2 6 13
2 7 8
2 7 9
2 7 10
2 7 14
2 7 15
2 7 16
2 7 17
2 8 10
2 8 11
2 8 14
2 8 15
2 8 17
2 8 18
2 9 10
2 9 12
2 9 14
2 9 16
2 9 17
2 9 19
2 10 11
2 10 12
2 10 13
2 10 14
2 10 15
2 10 16
2 10 17
2 10 18
2 10 19
2 10 20
2 11 13
2 11 15
2 11 17
2 11 18
2 11 20
2 12 13
2 12 16
2 12 17
2 12 19
2 12 20
2 13 17
2 13 18
2 13 19
2 13 20
2 14 15
2 14 16
2 14 17
2 14 21
2 14 22
2 14 23
2 14 24
2 15 17
2 15 18
2 15 21
2 15 22
2 15 24
2 15 25
2 16 17
2 16 19
2 16 21
2 16 23
2 16 24
2 16 26
2 17 18
2 17 19
2 17 20
2 17 21
2 17 22
2 17 23
2 17 24
2 17 25
2 17 26
2 17 27
2 18 20
2 18 22
2 18 24
2 18 25
2 18 27
2 19 20
2 19 23
2 19 24
2 19 26
2 19 27
2 20 24
2 20 25
2 20 26
2 20 27
2 21 22
2 21 23
2 21 24
2 21 28
2 21 29
2 21 30
2 21 31
2 22 24
2 22 25
2 22 28
2 22 29
2 22 31
2 22 32
2 23 24
2 23 26
2 23 28
2 23 30
2 23 31
2 23 33
2 24 25
2 24 26
2 24 27
2 24 28
2 24 29
2 24 30
2 24 31
2 24 32
2 24 33
2 24 34
2 25 27
2 25 29
2 25 31
2 25 32
2 25 34
2 26 27
2 26 30
2 26 31
2 26 33
2 26 34
2 27 31
2 27 32
2 27 33
2 27 34
1 35
CELL_TYPES 233
3
3
3
3
3
3
3
3
3
3
3
3
3
3
3
3
3
3
3
3
3
3
3
3
3
3
3
3
3
3
3
3
3
3
3
3
3
3
3
3
3
3
3
3
3
3
3
3
3
3
3
3
3
3
3
3
3
3
3
3
3
3
3
3
3
3
3
3
3
3
3
3
3
3
3
3
3
3
3
3
3
3
3
3
3
3
3
3
3
3
3
3
3
3
3
3
3
3
3
3
3
3
3
3
3
3
3
3
3
3
3
3
3
3
3
3
3
3
3
3
3
3
3
3
3
3
3
3
3
3
3
3
3
3
3
3
3
3
3
3
3
3
3
3
3
3
3
3
3
3
3
3
3
3
3
3
3
3
3
3
3
3
3
3
3
3
3
3
3
3
3
3
3
3
3
3
3
3
3
3
3
3
3
3
3
3
3
3
3
3
3
3
3
3
3
3
3
3
3
3
3
3
3
3
3
3
3
3
3
3
3
3
3
3
3
3
3
3
3
3
3
3
3
3
3
3
3
3
3
3
3
3
1
CELL_DATA 233
SCALARS Strain double 1
LOOKUP_TABLE default
-0.03747
-0.13542
0.08699
0.09110
-0.13600
0.02445
-0.13600
0.02445
0.09110
0.08699
-0.13542
-0.03747
-0.00737
0.01846
0.17404
0.17327
0.01946
0.06402
0.01946
0.06402
0.17327
0.17404
0.01846
-0.00737
0.01536
0.23004
0.21318
0.21183
0.23124
0.20602
0.23124
0.20602
0.21183
0.21318
0.23004
0.01536
-0.01168
0.12733
0.16613
0.16535
0.12821
0.01888
0.12821
0.01888
0.16535
0.16613
0.12733
-0.01168
0.00980
0.20953
0.06253
0.06368
0.21121
-0.04356
0.21121
-0.04356
0.06368
0.06253
0.20953
0.00980
-0.03273
0.04611
-0.00363
0.07795
-0.01434
0.02101
0.00437
0.00013
0.04541
-0.01734
0.03598
0.00462
0.01930
0.01606
0.04541
0.00731
0.10603
0.03756
0.00662
0.01606
0.00013
-0.00363
-0.04239
-0.04192
-0.03739
-0.01053
-0.03739
-0.04192
-0.04239
0.04611
0.00662
0.03756
0.10603
0.00731
-0.03273
0.01930
0.00462
0.03598
-0.01734
0.00437
0.02101
-0.01434
0.07795
-0.00625
-0.02649
-0.03832
0.12500
0.00249
-0.04204
-0.02979
-0.03895
-0.02552
-0.00000
0.10485
-0.03195
-0.04276
-0.02049
-0.02552
-0.02690
0.18980
0.00644
-0.02641
-0.02049
-0.03895
-0.03832
-0.05414
-0.05505
-0.06063
0.11483
-0.06063
-0.05505
-0.05414
-0.02649
-0.02641
0.00644
0.18980
-0.02690
-0.00625
-0.04276
-0.03195
0.10485
-0.00000
-0.02979
-0.04204
0.00249
0.12500
-0.00745
-0.07799
-0.06875
0.13516
0.00367
-0.05596
-0.05603
-0.06979
-0.07709
0.00326
0.12733
-0.05705
-0.05522
-0.06593
-0.07709
-0.02874
0.10406
-0.03744
-0.02897
-0.06593
-0.06979
-0.06875
-0.04168
-0.04287
-0.00969
-0.00492
-0.00969
-0.04287
-0.04168
-0.07799
-0.02897
-0.03744
0.10406
-0.02874
-0.00745
-0.05522
-0.05705
0.12733
0.00326
-0.05603
-0.05596
0.00367
0.13516
-0.01168
-0.04808
-0.05120
0.17791
0.02235
-0.05680
-0.04954
-0.05183
-0.04734
0.02370
0.17132
-0.04904
-0.05515
0.00226
-0.04734
-0.07200
0.18520
0.02717
-0.07350
0.00226
-0.05183
-0.05120
-0.06902
-0.07030
-0.00718
0.14000
-0.00718
-0.07030
-0.06902
-0.04808
-0.07350
0.02717
0.18520
-0.07200
-0.01168
-0.05515
-0.04904
0.17132
0.02370
-0.04954
-0.05680
0.02235
0.17791
0.10000
