# vtk DataFile Version 3.0
Point representing Sub_cellular elem model
ASCII

DATASET UNSTRUCTURED_GRID
POINTS 36 float
-39.16921 -23.73576 63.29139 
-39.15675 23.72936 63.09852 
0.01193 -41.37943 66.90143 
-0.00000 -0.00000 77.39441 
-0.01193 41.37943 66.90143 
39.15675 -23.72936 63.09852 
39.16921 23.73576 63.29139 
-33.43749 -20.87509 55.23943 
-33.42633 20.85530 55.20738 
-0.00718 -35.58754 58.42436 
-0.00000 -0.00000 67.40129 
0.00718 35.58754 58.42436 
33.42633 -20.85530 55.20738 
33.43749 20.87509 55.23943 
-28.09791 -17.78530 46.82811 
-28.09627 17.78143 46.85766 
-0.00631 -29.84500 49.55537 
-0.00000 -0.00000 57.03941 
0.00631 29.84500 49.55537 
28.09627 -17.78143 46.85766 
28.09791 17.78530 46.82811 
-23.28409 -14.66235 38.09668 
-23.29119 14.67199 38.15067 
-0.00490 -25.19138 40.37476 
-0.00000 -0.00000 47.15659 
0.00490 25.19138 40.37476 
23.29119 -14.67199 38.15067 
23.28409 14.66235 38.09668 
-17.54374 -11.67333 29.75348 
-17.57199 11.70476 29.82627 
0.00022 -19.59084 31.40679 
-0.00000 0.00000 36.72710 
-0.00022 19.59084 31.40679 
17.57199 -11.70476 29.82627 
17.54374 11.67333 29.75348 
0.00000 0.00000 -0.10000 
CELLS 233 698
2 0 1
2 0 2
2 0 3
2 1 3
2 1 4
2 2 3
2 2 5
2 3 4
2 3 5
2 3 6
2 4 6
2 5 6
2 7 8
2 7 9
2 7 10
2 8 10
2 8 11
2 9 10
2 9 12
2 10 11
2 10 12
2 10 13
2 11 13
2 12 13
2 14 15
2 14 16
2 14 17
2 15 17
2 15 18
2 16 17
2 16 19
2 17 18
2 17 19
2 17 20
2 18 20
2 19 20
2 21 22
2 21 23
2 21 24
2 22 24
2 22 25
2 23 24
2 23 26
2 24 25
2 24 26
2 24 27
2 25 27
2 26 27
2 28 29
2 28 30
2 28 31
2 29 31
2 29 32
2 30 31
2 30 33
2 31 32
2 31 33
2 31 34
2 32 34
2 33 34
2 0 1
2 0 2
2 0 3
2 0 7
2 0 8
2 0 9
2 0 10
2 1 3
2 1 4
2 1 7
2 1 8
2 1 10
2 1 11
2 2 3
2 2 5
2 2 7
2 2 9
2 2 10
2 2 12
2 3 4
2 3 5
2 3 6
2 3 7
2 3 8
2 3 9
2 3 10
2 3 11
2 3 12
2 3 13
2 4 6
2 4 8
2 4 10
2 4 11
2 4 13
2 5 6
2 5 9
2 5 10
2 5 12
2 5 13
2 6 10
2 6 11
2 6 12
2 6 13
2 7 8
2 7 9
2 7 10
2 7 14
2 7 15
2 7 16
2 7 17
2 8 10
2 8 11
2 8 14
2 8 15
2 8 17
2 8 18
2 9 10
2 9 12
2 9 14
2 9 16
2 9 17
2 9 19
2 10 11
2 10 12
2 10 13
2 10 14
2 10 15
2 10 16
2 10 17
2 10 18
2 10 19
2 10 20
2 11 13
2 11 15
2 11 17
2 11 18
2 11 20
2 12 13
2 12 16
2 12 17
2 12 19
2 12 20
2 13 17
2 13 18
2 13 19
2 13 20
2 14 15
2 14 16
2 14 17
2 14 21
2 14 22
2 14 23
2 14 24
2 15 17
2 15 18
2 15 21
2 15 22
2 15 24
2 15 25
2 16 17
2 16 19
2 16 21
2 16 23
2 16 24
2 16 26
2 17 18
2 17 19
2 17 20
2 17 21
2 17 22
2 17 23
2 17 24
2 17 25
2 17 26
2 17 27
2 18 20
2 18 22
2 18 24
2 18 25
2 18 27
2 19 20
2 19 23
2 19 24
2 19 26
2 19 27
2 20 24
2 20 25
2 20 26
2 20 27
2 21 22
2 21 23
2 21 24
2 21 28
2 21 29
2 21 30
2 21 31
2 22 24
2 22 25
2 22 28
2 22 29
2 22 31
2 22 32
2 23 24
2 23 26
2 23 28
2 23 30
2 23 31
2 23 33
2 24 25
2 24 26
2 24 27
2 24 28
2 24 29
2 24 30
2 24 31
2 24 32
2 24 33
2 24 34
2 25 27
2 25 29
2 25 31
2 25 32
2 25 34
2 26 27
2 26 30
2 26 31
2 26 33
2 26 34
2 27 31
2 27 32
2 27 33
2 27 34
1 35
CELL_TYPES 233
3
3
3
3
3
3
3
3
3
3
3
3
3
3
3
3
3
3
3
3
3
3
3
3
3
3
3
3
3
3
3
3
3
3
3
3
3
3
3
3
3
3
3
3
3
3
3
3
3
3
3
3
3
3
3
3
3
3
3
3
3
3
3
3
3
3
3
3
3
3
3
3
3
3
3
3
3
3
3
3
3
3
3
3
3
3
3
3
3
3
3
3
3
3
3
3
3
3
3
3
3
3
3
3
3
3
3
3
3
3
3
3
3
3
3
3
3
3
3
3
3
3
3
3
3
3
3
3
3
3
3
3
3
3
3
3
3
3
3
3
3
3
3
3
3
3
3
3
3
3
3
3
3
3
3
3
3
3
3
3
3
3
3
3
3
3
3
3
3
3
3
3
3
3
3
3
3
3
3
3
3
3
3
3
3
3
3
3
3
3
3
3
3
3
3
3
3
3
3
3
3
3
3
3
3
3
3
3
3
3
3
3
3
3
3
3
3
3
3
3
3
3
3
3
3
3
3
3
3
3
3
3
1
CELL_DATA 233
SCALARS Strain double 1
LOOKUP_TABLE default
-0.01274
-0.05251
0.02795
0.02889
-0.05281
0.00862
-0.05281
0.00862
0.02889
0.02795
-0.05251
-0.01274
-0.00244
0.00677
0.05202
0.05178
0.00714
0.02044
0.00714
0.02044
0.05178
0.05202
0.00677
-0.00244
0.00584
0.06584
0.06105
0.06068
0.06615
0.05856
0.06615
0.05856
0.06068
0.06105
0.06584
0.00584
-0.00411
0.04050
0.05092
0.05069
0.04077
0.00721
0.04077
0.00721
0.05069
0.05092
0.04050
-0.00411
0.00443
0.05642
0.01891
0.01965
0.05677
-0.01368
0.05677
-0.01368
0.01965
0.01891
0.05642
0.00443
-0.01107
0.01598
-0.00155
0.02893
-0.00484
0.00844
0.00177
-0.00064
0.01565
-0.00547
0.01670
0.00185
0.00799
0.00578
0.01565
0.00173
0.02668
0.01280
0.00150
0.00578
-0.00064
-0.00155
-0.01491
-0.01494
-0.01301
-0.00069
-0.01301
-0.01494
-0.01491
0.01598
0.00150
0.01280
0.02668
0.00173
-0.01107
0.00799
0.00185
0.01670
-0.00547
0.00177
0.00844
-0.00484
0.02893
-0.00205
-0.00853
-0.01349
0.04311
0.00093
-0.01389
-0.01046
-0.01372
-0.00816
0.00049
0.03719
-0.01092
-0.01385
-0.00747
-0.00816
-0.00986
0.05658
0.00122
-0.00979
-0.00747
-0.01372
-0.01349
-0.01940
-0.01986
-0.02242
0.03619
-0.02242
-0.01986
-0.01940
-0.00853
-0.00979
0.00122
0.05658
-0.00986
-0.00205
-0.01385
-0.01092
0.03719
0.00049
-0.01046
-0.01389
0.00093
0.04311
-0.00194
-0.02605
-0.02384
0.04481
0.00096
-0.01926
-0.01921
-0.02418
-0.02577
0.00124
0.04196
-0.01932
-0.01876
-0.02361
-0.02577
-0.00937
0.02927
-0.01332
-0.00971
-0.02361
-0.02418
-0.02384
-0.01477
-0.01540
-0.00464
-0.01172
-0.00464
-0.01540
-0.01477
-0.02605
-0.00971
-0.01332
0.02927
-0.00937
-0.00194
-0.01876
-0.01932
0.04196
0.00124
-0.01921
-0.01926
0.00096
0.04481
-0.00411
-0.01523
-0.01651
0.05592
0.00677
-0.01978
-0.01706
-0.01672
-0.01498
0.00764
0.05267
-0.01656
-0.01903
0.00156
-0.01498
-0.02625
0.05731
0.00922
-0.02711
0.00156
-0.01672
-0.01651
-0.02492
-0.02544
-0.00336
0.04295
-0.00336
-0.02544
-0.02492
-0.01523
-0.02711
0.00922
0.05731
-0.02625
-0.00411
-0.01903
-0.01656
0.05267
0.00764
-0.01706
-0.01978
0.00677
0.05592
0.10000
