# vtk DataFile Version 3.0
Point representing Sub_cellular elem model
ASCII

DATASET UNSTRUCTURED_GRID
POINTS 36 float
-39.78374 -22.75358 64.05725 
-39.83029 22.86786 62.90573 
0.11032 -42.46463 69.26248 
0.00000 0.00000 77.84610 
-0.11032 42.46463 69.26248 
39.83029 -22.86786 62.90573 
39.78374 22.75358 64.05725 
-32.37737 -20.83157 56.38405 
-32.31686 20.77243 56.02864 
-0.01008 -35.26915 60.63723 
0.00000 0.00000 67.64442 
0.01008 35.26915 60.63723 
32.31686 -20.77243 56.02864 
32.37737 20.83157 56.38405 
-26.42551 -17.67223 47.23409 
-26.38165 17.62210 47.17319 
-0.03344 -28.81543 50.54000 
0.00000 0.00000 56.32938 
0.03344 28.81543 50.54000 
26.38165 -17.62210 47.17319 
26.42551 17.67223 47.23409 
-21.86693 -14.43981 37.09530 
-21.85052 14.42919 37.12609 
-0.02525 -25.42989 40.06356 
0.00000 0.00000 46.62070 
0.02525 25.42989 40.06356 
21.85052 -14.42919 37.12609 
21.86693 14.43981 37.09530 
-13.60118 -11.61150 28.17560 
-13.61483 11.62807 28.24790 
-0.01948 -18.12309 29.73279 
0.00000 0.00000 33.97503 
0.01948 18.12309 29.73279 
13.61483 -11.62807 28.24790 
13.60118 11.61150 28.17560 
0.00000 0.00000 -0.10000 
CELLS 233 698
2 0 1
2 0 2
2 0 3
2 1 3
2 1 4
2 2 3
2 2 5
2 3 4
2 3 5
2 3 6
2 4 6
2 5 6
2 7 8
2 7 9
2 7 10
2 8 10
2 8 11
2 9 10
2 9 12
2 10 11
2 10 12
2 10 13
2 11 13
2 12 13
2 14 15
2 14 16
2 14 17
2 15 17
2 15 18
2 16 17
2 16 19
2 17 18
2 17 19
2 17 20
2 18 20
2 19 20
2 21 22
2 21 23
2 21 24
2 22 24
2 22 25
2 23 24
2 23 26
2 24 25
2 24 26
2 24 27
2 25 27
2 26 27
2 28 29
2 28 30
2 28 31
2 29 31
2 29 32
2 30 31
2 30 33
2 31 32
2 31 33
2 31 34
2 32 34
2 33 34
2 0 1
2 0 2
2 0 3
2 0 7
2 0 8
2 0 9
2 0 10
2 1 3
2 1 4
2 1 7
2 1 8
2 1 10
2 1 11
2 2 3
2 2 5
2 2 7
2 2 9
2 2 10
2 2 12
2 3 4
2 3 5
2 3 6
2 3 7
2 3 8
2 3 9
2 3 10
2 3 11
2 3 12
2 3 13
2 4 6
2 4 8
2 4 10
2 4 11
2 4 13
2 5 6
2 5 9
2 5 10
2 5 12
2 5 13
2 6 10
2 6 11
2 6 12
2 6 13
2 7 8
2 7 9
2 7 10
2 7 14
2 7 15
2 7 16
2 7 17
2 8 10
2 8 11
2 8 14
2 8 15
2 8 17
2 8 18
2 9 10
2 9 12
2 9 14
2 9 16
2 9 17
2 9 19
2 10 11
2 10 12
2 10 13
2 10 14
2 10 15
2 10 16
2 10 17
2 10 18
2 10 19
2 10 20
2 11 13
2 11 15
2 11 17
2 11 18
2 11 20
2 12 13
2 12 16
2 12 17
2 12 19
2 12 20
2 13 17
2 13 18
2 13 19
2 13 20
2 14 15
2 14 16
2 14 17
2 14 21
2 14 22
2 14 23
2 14 24
2 15 17
2 15 18
2 15 21
2 15 22
2 15 24
2 15 25
2 16 17
2 16 19
2 16 21
2 16 23
2 16 24
2 16 26
2 17 18
2 17 19
2 17 20
2 17 21
2 17 22
2 17 23
2 17 24
2 17 25
2 17 26
2 17 27
2 18 20
2 18 22
2 18 24
2 18 25
2 18 27
2 19 20
2 19 23
2 19 24
2 19 26
2 19 27
2 20 24
2 20 25
2 20 26
2 20 27
2 21 22
2 21 23
2 21 24
2 21 28
2 21 29
2 21 30
2 21 31
2 22 24
2 22 25
2 22 28
2 22 29
2 22 31
2 22 32
2 23 24
2 23 26
2 23 28
2 23 30
2 23 31
2 23 33
2 24 25
2 24 26
2 24 27
2 24 28
2 24 29
2 24 30
2 24 31
2 24 32
2 24 33
2 24 34
2 25 27
2 25 29
2 25 31
2 25 32
2 25 34
2 26 27
2 26 30
2 26 31
2 26 33
2 26 34
2 27 31
2 27 32
2 27 33
2 27 34
1 35
CELL_TYPES 233
3
3
3
3
3
3
3
3
3
3
3
3
3
3
3
3
3
3
3
3
3
3
3
3
3
3
3
3
3
3
3
3
3
3
3
3
3
3
3
3
3
3
3
3
3
3
3
3
3
3
3
3
3
3
3
3
3
3
3
3
3
3
3
3
3
3
3
3
3
3
3
3
3
3
3
3
3
3
3
3
3
3
3
3
3
3
3
3
3
3
3
3
3
3
3
3
3
3
3
3
3
3
3
3
3
3
3
3
3
3
3
3
3
3
3
3
3
3
3
3
3
3
3
3
3
3
3
3
3
3
3
3
3
3
3
3
3
3
3
3
3
3
3
3
3
3
3
3
3
3
3
3
3
3
3
3
3
3
3
3
3
3
3
3
3
3
3
3
3
3
3
3
3
3
3
3
3
3
3
3
3
3
3
3
3
3
3
3
3
3
3
3
3
3
3
3
3
3
3
3
3
3
3
3
3
3
3
3
3
3
3
3
3
3
3
3
3
3
3
3
3
3
3
3
3
3
3
3
3
3
3
3
1
CELL_DATA 233
SCALARS Strain double 1
LOOKUP_TABLE default
-0.00544
-0.13625
0.07801
0.06954
-0.13512
0.01173
-0.13512
0.01173
0.06954
0.07801
-0.13625
-0.00544
0.00252
0.04254
0.17282
0.17112
0.04230
0.07851
0.04230
0.07851
0.17112
0.17282
0.04254
0.00252
0.01947
0.26384
0.22534
0.22627
0.26263
0.20769
0.26263
0.20769
0.22627
0.22534
0.26384
0.01947
-0.00264
0.14051
0.17564
0.17589
0.14034
0.01474
0.14034
0.01474
0.17589
0.17564
0.14051
-0.00264
-0.01237
0.29566
0.12008
0.12053
0.29691
-0.02701
0.29691
-0.02701
0.12053
0.12008
0.29566
-0.01237
-0.04918
0.05555
-0.00284
0.08363
-0.02215
0.02391
0.00150
0.00626
0.05422
-0.02385
0.03988
0.00587
0.02271
0.02073
0.05422
0.00591
0.12332
0.04004
0.00402
0.02073
0.00626
-0.00284
-0.03975
-0.03752
-0.03955
0.02017
-0.03955
-0.03752
-0.03975
0.05555
0.00402
0.04004
0.12332
0.00591
-0.04918
0.02271
0.00587
0.03988
-0.02385
0.00150
0.02391
-0.02215
0.08363
-0.00504
-0.03469
-0.04073
0.13634
0.00293
-0.04913
-0.03452
-0.04021
-0.03384
-0.00003
0.11162
-0.03657
-0.05024
-0.02758
-0.03384
-0.03141
0.19836
-0.00112
-0.03053
-0.02758
-0.04021
-0.04073
-0.05262
-0.05315
-0.05796
0.13150
-0.05796
-0.05315
-0.05262
-0.03469
-0.03053
-0.00112
0.19836
-0.03141
-0.00504
-0.05024
-0.03657
0.11162
-0.00003
-0.03452
-0.04913
0.00293
0.13634
-0.00958
-0.08488
-0.07212
0.15768
0.00171
-0.06294
-0.06225
-0.07339
-0.08338
0.00011
0.14747
-0.06418
-0.06279
-0.06733
-0.08338
-0.03129
0.10098
-0.04168
-0.03035
-0.06733
-0.07339
-0.07212
-0.04132
-0.04232
-0.00522
-0.02913
-0.00522
-0.04232
-0.04132
-0.08488
-0.03035
-0.04168
0.10098
-0.03129
-0.00958
-0.06279
-0.06418
0.14747
0.00011
-0.06225
-0.06294
0.00171
0.15768
-0.01991
-0.05442
-0.05342
0.24854
0.02535
-0.07432
-0.05847
-0.05440
-0.05322
0.02558
0.24297
-0.05903
-0.07303
0.00821
-0.05322
-0.09885
0.26536
0.03676
-0.09922
0.00821
-0.05440
-0.05342
-0.08338
-0.08470
-0.01783
0.26457
-0.01783
-0.08470
-0.08338
-0.05442
-0.09922
0.03676
0.26536
-0.09885
-0.01991
-0.07303
-0.05903
0.24297
0.02558
-0.05847
-0.07432
0.02535
0.24854
0.10000
