# vtk DataFile Version 3.0
Point representing Sub_cellular elem model
ASCII

DATASET UNSTRUCTURED_GRID
POINTS 36 float
-39.50508 -23.08907 63.50157 
-39.56445 23.18014 62.93079 
0.05902 -41.90242 68.02297 
-0.00000 0.00000 78.10246 
-0.05902 41.90242 68.02297 
39.56445 -23.18014 62.93079 
39.50508 23.08907 63.50157 
-32.83381 -20.85757 55.71111 
-32.80486 20.82418 55.53939 
-0.00786 -35.35980 59.60345 
0.00000 0.00000 67.82269 
0.00786 35.35980 59.60345 
32.80486 -20.82418 55.53939 
32.83381 20.85757 55.71111 
-27.15630 -17.71098 46.96407 
-27.13307 17.67629 46.94160 
-0.02036 -29.30032 50.19668 
0.00000 0.00000 56.86607 
0.02036 29.30032 50.19668 
27.13307 -17.67629 46.94160 
27.15630 17.71098 46.96407 
-22.41391 -14.48296 37.42937 
-22.40650 14.47113 37.45445 
-0.01402 -25.38687 40.43239 
0.00000 0.00000 47.32648 
0.01402 25.38687 40.43239 
22.40650 -14.47113 37.45445 
22.41391 14.48296 37.42937 
-14.55417 -11.58831 28.94164 
-14.57056 11.59444 28.98852 
-0.01263 -18.35365 30.63707 
0.00000 0.00000 35.03557 
0.01263 18.35365 30.63707 
14.57056 -11.59444 28.98852 
14.55417 11.58831 28.94164 
0.00000 0.00000 -0.10000 
CELLS 233 698
2 0 1
2 0 2
2 0 3
2 1 3
2 1 4
2 2 3
2 2 5
2 3 4
2 3 5
2 3 6
2 4 6
2 5 6
2 7 8
2 7 9
2 7 10
2 8 10
2 8 11
2 9 10
2 9 12
2 10 11
2 10 12
2 10 13
2 11 13
2 12 13
2 14 15
2 14 16
2 14 17
2 15 17
2 15 18
2 16 17
2 16 19
2 17 18
2 17 19
2 17 20
2 18 20
2 19 20
2 21 22
2 21 23
2 21 24
2 22 24
2 22 25
2 23 24
2 23 26
2 24 25
2 24 26
2 24 27
2 25 27
2 26 27
2 28 29
2 28 30
2 28 31
2 29 31
2 29 32
2 30 31
2 30 33
2 31 32
2 31 33
2 31 34
2 32 34
2 33 34
2 0 1
2 0 2
2 0 3
2 0 7
2 0 8
2 0 9
2 0 10
2 1 3
2 1 4
2 1 7
2 1 8
2 1 10
2 1 11
2 2 3
2 2 5
2 2 7
2 2 9
2 2 10
2 2 12
2 3 4
2 3 5
2 3 6
2 3 7
2 3 8
2 3 9
2 3 10
2 3 11
2 3 12
2 3 13
2 4 6
2 4 8
2 4 10
2 4 11
2 4 13
2 5 6
2 5 9
2 5 10
2 5 12
2 5 13
2 6 10
2 6 11
2 6 12
2 6 13
2 7 8
2 7 9
2 7 10
2 7 14
2 7 15
2 7 16
2 7 17
2 8 10
2 8 11
2 8 14
2 8 15
2 8 17
2 8 18
2 9 10
2 9 12
2 9 14
2 9 16
2 9 17
2 9 19
2 10 11
2 10 12
2 10 13
2 10 14
2 10 15
2 10 16
2 10 17
2 10 18
2 10 19
2 10 20
2 11 13
2 11 15
2 11 17
2 11 18
2 11 20
2 12 13
2 12 16
2 12 17
2 12 19
2 12 20
2 13 17
2 13 18
2 13 19
2 13 20
2 14 15
2 14 16
2 14 17
2 14 21
2 14 22
2 14 23
2 14 24
2 15 17
2 15 18
2 15 21
2 15 22
2 15 24
2 15 25
2 16 17
2 16 19
2 16 21
2 16 23
2 16 24
2 16 26
2 17 18
2 17 19
2 17 20
2 17 21
2 17 22
2 17 23
2 17 24
2 17 25
2 17 26
2 17 27
2 18 20
2 18 22
2 18 24
2 18 25
2 18 27
2 19 20
2 19 23
2 19 24
2 19 26
2 19 27
2 20 24
2 20 25
2 20 26
2 20 27
2 21 22
2 21 23
2 21 24
2 21 28
2 21 29
2 21 30
2 21 31
2 22 24
2 22 25
2 22 28
2 22 29
2 22 31
2 22 32
2 23 24
2 23 26
2 23 28
2 23 30
2 23 31
2 23 33
2 24 25
2 24 26
2 24 27
2 24 28
2 24 29
2 24 30
2 24 31
2 24 32
2 24 33
2 24 34
2 25 27
2 25 29
2 25 31
2 25 32
2 25 34
2 26 27
2 26 30
2 26 31
2 26 33
2 26 34
2 27 31
2 27 32
2 27 33
2 27 34
1 35
CELL_TYPES 233
3
3
3
3
3
3
3
3
3
3
3
3
3
3
3
3
3
3
3
3
3
3
3
3
3
3
3
3
3
3
3
3
3
3
3
3
3
3
3
3
3
3
3
3
3
3
3
3
3
3
3
3
3
3
3
3
3
3
3
3
3
3
3
3
3
3
3
3
3
3
3
3
3
3
3
3
3
3
3
3
3
3
3
3
3
3
3
3
3
3
3
3
3
3
3
3
3
3
3
3
3
3
3
3
3
3
3
3
3
3
3
3
3
3
3
3
3
3
3
3
3
3
3
3
3
3
3
3
3
3
3
3
3
3
3
3
3
3
3
3
3
3
3
3
3
3
3
3
3
3
3
3
3
3
3
3
3
3
3
3
3
3
3
3
3
3
3
3
3
3
3
3
3
3
3
3
3
3
3
3
3
3
3
3
3
3
3
3
3
3
3
3
3
3
3
3
3
3
3
3
3
3
3
3
3
3
3
3
3
3
3
3
3
3
3
3
3
3
3
3
3
3
3
3
3
3
3
3
3
3
3
3
1
CELL_DATA 233
SCALARS Strain double 1
LOOKUP_TABLE default
0.01072
-0.08877
0.03859
0.03112
-0.08797
0.00152
-0.08797
0.00152
0.03112
0.03859
-0.08877
0.01072
0.00483
0.03431
0.09843
0.09849
0.03347
0.04450
0.03347
0.04450
0.09849
0.09843
0.03431
0.00483
0.01302
0.16283
0.13976
0.14134
0.16122
0.12813
0.16122
0.12813
0.14134
0.13976
0.16283
0.01302
0.00030
0.09360
0.11282
0.11349
0.09283
0.01236
0.09283
0.01236
0.11349
0.11282
0.09360
0.00030
-0.01479
0.20027
0.10172
0.10211
0.19974
-0.01347
0.19974
-0.01347
0.10211
0.10172
0.20027
-0.01479
-0.03592
0.03766
0.00071
0.04965
-0.01684
0.01672
0.00128
0.00631
0.03697
-0.01682
0.02895
0.00463
0.01660
0.01541
0.03697
0.00207
0.06630
0.02554
0.00087
0.01541
0.00631
0.00071
-0.02221
-0.02114
-0.02333
0.02798
-0.02333
-0.02114
-0.02221
0.03766
0.00087
0.02554
0.06630
0.00207
-0.03592
0.01660
0.00463
0.02895
-0.01682
0.00128
0.01672
-0.01684
0.04965
-0.00321
-0.02383
-0.02572
0.08924
0.00129
-0.03495
-0.02410
-0.02546
-0.02328
0.00008
0.07703
-0.02502
-0.03516
-0.01828
-0.02328
-0.02280
0.11895
-0.00297
-0.02224
-0.01828
-0.02546
-0.02572
-0.03323
-0.03374
-0.03873
0.09566
-0.03873
-0.03374
-0.03323
-0.02383
-0.02224
-0.00297
0.11895
-0.02280
-0.00321
-0.03516
-0.02502
0.07703
0.00008
-0.02410
-0.03495
0.00129
0.08924
-0.00697
-0.05805
-0.04872
0.11274
-0.00043
-0.04588
-0.04375
-0.04956
-0.05704
-0.00117
0.10733
-0.04487
-0.04560
-0.04644
-0.05704
-0.02020
0.05193
-0.02982
-0.01953
-0.04644
-0.04956
-0.04872
-0.02633
-0.02707
-0.00342
-0.04604
-0.00342
-0.02707
-0.02633
-0.05805
-0.01953
-0.02982
0.05193
-0.02020
-0.00697
-0.04560
-0.04487
0.10733
-0.00117
-0.04375
-0.04588
-0.00043
0.11274
-0.01702
-0.03665
-0.03372
0.19247
0.01718
-0.05929
-0.04407
-0.03442
-0.03586
0.01744
0.18891
-0.04444
-0.05826
0.00993
-0.03586
-0.08391
0.20588
0.02905
-0.08386
0.00993
-0.03442
-0.03372
-0.06681
-0.06756
-0.01643
0.22909
-0.01643
-0.06756
-0.06681
-0.03665
-0.08386
0.02905
0.20588
-0.08391
-0.01702
-0.05826
-0.04444
0.18891
0.01744
-0.04407
-0.05929
0.01718
0.19247
0.10000
