# vtk DataFile Version 3.0
Point representing Sub_cellular elem model
ASCII

DATASET UNSTRUCTURED_GRID
POINTS 36 float
-39.91992 -22.54823 64.35747 
-39.93637 22.67628 62.64641 
0.15926 -42.76356 70.24738 
0.00000 0.00000 77.73351 
-0.15926 42.76356 70.24738 
39.93637 -22.67628 62.64641 
39.91992 22.54823 64.35747 
-32.07702 -20.82291 56.81528 
-31.98122 20.73893 56.27553 
-0.01015 -35.21271 61.33304 
0.00000 0.00000 67.61473 
0.01015 35.21271 61.33304 
31.98122 -20.73893 56.27553 
32.07702 20.82291 56.81528 
-25.96629 -17.64816 47.41866 
-25.90063 17.58119 47.30528 
-0.04543 -28.51746 50.75328 
0.00000 0.00000 56.05227 
0.04543 28.51746 50.75328 
25.90063 -17.58119 47.30528 
25.96629 17.64816 47.41866 
-21.52404 -14.41518 36.90151 
-21.49530 14.40148 36.91954 
-0.03470 -25.44483 39.83093 
0.00000 0.00000 46.18246 
0.03470 25.44483 39.83093 
21.49530 -14.40148 36.91954 
21.52404 14.41518 36.90151 
-13.01674 -11.62543 27.69895 
-13.01810 11.64164 27.77253 
-0.02756 -17.97055 29.15368 
0.00000 0.00000 33.30147 
0.02756 17.97055 29.15368 
13.01810 -11.64164 27.77253 
13.01674 11.62543 27.69895 
0.00000 0.00000 -0.10000 
CELLS 233 698
2 0 1
2 0 2
2 0 3
2 1 3
2 1 4
2 2 3
2 2 5
2 3 4
2 3 5
2 3 6
2 4 6
2 5 6
2 7 8
2 7 9
2 7 10
2 8 10
2 8 11
2 9 10
2 9 12
2 10 11
2 10 12
2 10 13
2 11 13
2 12 13
2 14 15
2 14 16
2 14 17
2 15 17
2 15 18
2 16 17
2 16 19
2 17 18
2 17 19
2 17 20
2 18 20
2 19 20
2 21 22
2 21 23
2 21 24
2 22 24
2 22 25
2 23 24
2 23 26
2 24 25
2 24 26
2 24 27
2 25 27
2 26 27
2 28 29
2 28 30
2 28 31
2 29 31
2 29 32
2 30 31
2 30 33
2 31 32
2 31 33
2 31 34
2 32 34
2 33 34
2 0 1
2 0 2
2 0 3
2 0 7
2 0 8
2 0 9
2 0 10
2 1 3
2 1 4
2 1 7
2 1 8
2 1 10
2 1 11
2 2 3
2 2 5
2 2 7
2 2 9
2 2 10
2 2 12
2 3 4
2 3 5
2 3 6
2 3 7
2 3 8
2 3 9
2 3 10
2 3 11
2 3 12
2 3 13
2 4 6
2 4 8
2 4 10
2 4 11
2 4 13
2 5 6
2 5 9
2 5 10
2 5 12
2 5 13
2 6 10
2 6 11
2 6 12
2 6 13
2 7 8
2 7 9
2 7 10
2 7 14
2 7 15
2 7 16
2 7 17
2 8 10
2 8 11
2 8 14
2 8 15
2 8 17
2 8 18
2 9 10
2 9 12
2 9 14
2 9 16
2 9 17
2 9 19
2 10 11
2 10 12
2 10 13
2 10 14
2 10 15
2 10 16
2 10 17
2 10 18
2 10 19
2 10 20
2 11 13
2 11 15
2 11 17
2 11 18
2 11 20
2 12 13
2 12 16
2 12 17
2 12 19
2 12 20
2 13 17
2 13 18
2 13 19
2 13 20
2 14 15
2 14 16
2 14 17
2 14 21
2 14 22
2 14 23
2 14 24
2 15 17
2 15 18
2 15 21
2 15 22
2 15 24
2 15 25
2 16 17
2 16 19
2 16 21
2 16 23
2 16 24
2 16 26
2 17 18
2 17 19
2 17 20
2 17 21
2 17 22
2 17 23
2 17 24
2 17 25
2 17 26
2 17 27
2 18 20
2 18 22
2 18 24
2 18 25
2 18 27
2 19 20
2 19 23
2 19 24
2 19 26
2 19 27
2 20 24
2 20 25
2 20 26
2 20 27
2 21 22
2 21 23
2 21 24
2 21 28
2 21 29
2 21 30
2 21 31
2 22 24
2 22 25
2 22 28
2 22 29
2 22 31
2 22 32
2 23 24
2 23 26
2 23 28
2 23 30
2 23 31
2 23 33
2 24 25
2 24 26
2 24 27
2 24 28
2 24 29
2 24 30
2 24 31
2 24 32
2 24 33
2 24 34
2 25 27
2 25 29
2 25 31
2 25 32
2 25 34
2 26 27
2 26 30
2 26 31
2 26 33
2 26 34
2 27 31
2 27 32
2 27 33
2 27 34
1 35
CELL_TYPES 233
3
3
3
3
3
3
3
3
3
3
3
3
3
3
3
3
3
3
3
3
3
3
3
3
3
3
3
3
3
3
3
3
3
3
3
3
3
3
3
3
3
3
3
3
3
3
3
3
3
3
3
3
3
3
3
3
3
3
3
3
3
3
3
3
3
3
3
3
3
3
3
3
3
3
3
3
3
3
3
3
3
3
3
3
3
3
3
3
3
3
3
3
3
3
3
3
3
3
3
3
3
3
3
3
3
3
3
3
3
3
3
3
3
3
3
3
3
3
3
3
3
3
3
3
3
3
3
3
3
3
3
3
3
3
3
3
3
3
3
3
3
3
3
3
3
3
3
3
3
3
3
3
3
3
3
3
3
3
3
3
3
3
3
3
3
3
3
3
3
3
3
3
3
3
3
3
3
3
3
3
3
3
3
3
3
3
3
3
3
3
3
3
3
3
3
3
3
3
3
3
3
3
3
3
3
3
3
3
3
3
3
3
3
3
3
3
3
3
3
3
3
3
3
3
3
3
3
3
3
3
3
3
1
CELL_DATA 233
SCALARS Strain double 1
LOOKUP_TABLE default
-0.01505
-0.16165
0.10348
0.09517
-0.16031
0.01688
-0.16031
0.01688
0.09517
0.10348
-0.16165
-0.01505
0.00127
0.04718
0.22429
0.22124
0.04734
0.10102
0.04734
0.10102
0.22124
0.22429
0.04718
0.00127
0.02317
0.33626
0.28600
0.28629
0.33558
0.26397
0.33558
0.26397
0.28629
0.28600
0.33626
0.02317
-0.00444
0.17086
0.21795
0.21783
0.17120
0.01584
0.17120
0.01584
0.21783
0.21795
0.17086
-0.00444
-0.01120
0.36674
0.13213
0.13218
0.36966
-0.03585
0.36966
-0.03585
0.13218
0.13213
0.36674
-0.01120
-0.05708
0.06667
-0.00494
0.10169
-0.02521
0.02742
0.00133
0.00715
0.06506
-0.02867
0.03743
0.00633
0.02517
0.02286
0.06506
0.00939
0.16837
0.04859
0.00699
0.02286
0.00715
-0.00494
-0.05037
-0.04707
-0.04931
0.01188
-0.04931
-0.04707
-0.05037
0.06667
0.00699
0.04859
0.16837
0.00939
-0.05708
0.02517
0.00633
0.03743
-0.02867
0.00133
0.02742
-0.02521
0.10169
-0.00600
-0.04169
-0.04968
0.16497
0.00418
-0.05834
-0.04078
-0.04899
-0.04064
-0.00062
0.12876
-0.04411
-0.06055
-0.03272
-0.04064
-0.03600
0.25204
0.00099
-0.03470
-0.03272
-0.04899
-0.04968
-0.06385
-0.06424
-0.06865
0.15625
-0.06865
-0.06424
-0.06385
-0.04169
-0.03470
0.00099
0.25204
-0.03600
-0.00600
-0.06055
-0.04411
0.12876
-0.00062
-0.04078
-0.05834
0.00418
0.16497
-0.01140
-0.10181
-0.08627
0.18657
0.00336
-0.07329
-0.07333
-0.08791
-0.09983
0.00065
0.17209
-0.07617
-0.07357
-0.07957
-0.09983
-0.03807
0.13463
-0.04824
-0.03662
-0.07957
-0.08791
-0.08627
-0.04988
-0.05095
-0.00559
-0.01302
-0.00559
-0.05095
-0.04988
-0.10181
-0.03662
-0.04824
0.13463
-0.03807
-0.01140
-0.07357
-0.07617
0.17209
0.00065
-0.07333
-0.07329
0.00336
0.18657
-0.02168
-0.06589
-0.06579
0.28392
0.03076
-0.08312
-0.06686
-0.06700
-0.06435
0.03055
0.27730
-0.06789
-0.08183
0.00683
-0.06435
-0.10751
0.30334
0.04154
-0.10785
0.00683
-0.06700
-0.06579
-0.09302
-0.09464
-0.01841
0.28810
-0.01841
-0.09464
-0.09302
-0.06589
-0.10785
0.04154
0.30334
-0.10751
-0.02168
-0.08183
-0.06789
0.27730
0.03055
-0.06686
-0.08312
0.03076
0.28392
0.10000
