# vtk DataFile Version 3.0
Point representing Sub_cellular elem model
ASCII

DATASET UNSTRUCTURED_GRID
POINTS 36 float
-39.92802 -22.89730 64.28937 
-39.78420 22.87069 62.46184 
0.12996 -42.81781 71.15217 
-0.00000 0.00000 77.07367 
-0.12996 42.81781 71.15217 
39.78420 -22.87069 62.46184 
39.92802 22.89730 64.28937 
-32.01648 -20.80142 56.96718 
-31.88154 20.66877 56.44552 
-0.02478 -35.51412 61.74320 
-0.00000 0.00000 67.36789 
0.02478 35.51412 61.74320 
31.88154 -20.66877 56.44552 
32.01648 20.80142 56.96718 
-25.68002 -17.63866 47.58742 
-25.61156 17.57883 47.50476 
-0.04682 -28.27350 50.99774 
-0.00000 0.00000 55.67674 
0.04682 28.27350 50.99774 
25.61156 -17.57883 47.50476 
25.68002 17.63866 47.58742 
-21.40875 -14.48357 36.86992 
-21.38142 14.48892 36.91517 
-0.03707 -25.43100 39.68525 
-0.00000 0.00000 45.46271 
0.03707 25.43100 39.68525 
21.38142 -14.48892 36.91517 
21.40875 14.48357 36.86992 
-13.46696 -11.74485 27.41986 
-13.48386 11.78623 27.52621 
-0.03047 -18.69398 28.84126 
-0.00000 0.00000 33.34866 
0.03047 18.69398 28.84126 
13.48386 -11.78623 27.52621 
13.46696 11.74485 27.41986 
0.00000 0.00000 -0.10000 
CELLS 233 698
2 0 1
2 0 2
2 0 3
2 1 3
2 1 4
2 2 3
2 2 5
2 3 4
2 3 5
2 3 6
2 4 6
2 5 6
2 7 8
2 7 9
2 7 10
2 8 10
2 8 11
2 9 10
2 9 12
2 10 11
2 10 12
2 10 13
2 11 13
2 12 13
2 14 15
2 14 16
2 14 17
2 15 17
2 15 18
2 16 17
2 16 19
2 17 18
2 17 19
2 17 20
2 18 20
2 19 20
2 21 22
2 21 23
2 21 24
2 22 24
2 22 25
2 23 24
2 23 26
2 24 25
2 24 26
2 24 27
2 25 27
2 26 27
2 28 29
2 28 30
2 28 31
2 29 31
2 29 32
2 30 31
2 30 33
2 31 32
2 31 33
2 31 34
2 32 34
2 33 34
2 0 1
2 0 2
2 0 3
2 0 7
2 0 8
2 0 9
2 0 10
2 1 3
2 1 4
2 1 7
2 1 8
2 1 10
2 1 11
2 2 3
2 2 5
2 2 7
2 2 9
2 2 10
2 2 12
2 3 4
2 3 5
2 3 6
2 3 7
2 3 8
2 3 9
2 3 10
2 3 11
2 3 12
2 3 13
2 4 6
2 4 8
2 4 10
2 4 11
2 4 13
2 5 6
2 5 9
2 5 10
2 5 12
2 5 13
2 6 10
2 6 11
2 6 12
2 6 13
2 7 8
2 7 9
2 7 10
2 7 14
2 7 15
2 7 16
2 7 17
2 8 10
2 8 11
2 8 14
2 8 15
2 8 17
2 8 18
2 9 10
2 9 12
2 9 14
2 9 16
2 9 17
2 9 19
2 10 11
2 10 12
2 10 13
2 10 14
2 10 15
2 10 16
2 10 17
2 10 18
2 10 19
2 10 20
2 11 13
2 11 15
2 11 17
2 11 18
2 11 20
2 12 13
2 12 16
2 12 17
2 12 19
2 12 20
2 13 17
2 13 18
2 13 19
2 13 20
2 14 15
2 14 16
2 14 17
2 14 21
2 14 22
2 14 23
2 14 24
2 15 17
2 15 18
2 15 21
2 15 22
2 15 24
2 15 25
2 16 17
2 16 19
2 16 21
2 16 23
2 16 24
2 16 26
2 17 18
2 17 19
2 17 20
2 17 21
2 17 22
2 17 23
2 17 24
2 17 25
2 17 26
2 17 27
2 18 20
2 18 22
2 18 24
2 18 25
2 18 27
2 19 20
2 19 23
2 19 24
2 19 26
2 19 27
2 20 24
2 20 25
2 20 26
2 20 27
2 21 22
2 21 23
2 21 24
2 21 28
2 21 29
2 21 30
2 21 31
2 22 24
2 22 25
2 22 28
2 22 29
2 22 31
2 22 32
2 23 24
2 23 26
2 23 28
2 23 30
2 23 31
2 23 33
2 24 25
2 24 26
2 24 27
2 24 28
2 24 29
2 24 30
2 24 31
2 24 32
2 24 33
2 24 34
2 25 27
2 25 29
2 25 31
2 25 32
2 25 34
2 26 27
2 26 30
2 26 31
2 26 33
2 26 34
2 27 31
2 27 32
2 27 33
2 27 34
1 35
CELL_TYPES 233
3
3
3
3
3
3
3
3
3
3
3
3
3
3
3
3
3
3
3
3
3
3
3
3
3
3
3
3
3
3
3
3
3
3
3
3
3
3
3
3
3
3
3
3
3
3
3
3
3
3
3
3
3
3
3
3
3
3
3
3
3
3
3
3
3
3
3
3
3
3
3
3
3
3
3
3
3
3
3
3
3
3
3
3
3
3
3
3
3
3
3
3
3
3
3
3
3
3
3
3
3
3
3
3
3
3
3
3
3
3
3
3
3
3
3
3
3
3
3
3
3
3
3
3
3
3
3
3
3
3
3
3
3
3
3
3
3
3
3
3
3
3
3
3
3
3
3
3
3
3
3
3
3
3
3
3
3
3
3
3
3
3
3
3
3
3
3
3
3
3
3
3
3
3
3
3
3
3
3
3
3
3
3
3
3
3
3
3
3
3
3
3
3
3
3
3
3
3
3
3
3
3
3
3
3
3
3
3
3
3
3
3
3
3
3
3
3
3
3
3
3
3
3
3
3
3
3
3
3
3
3
3
1
CELL_DATA 233
SCALARS Strain double 1
LOOKUP_TABLE default
-0.05224
-0.17719
0.12784
0.13704
-0.17773
0.03032
-0.17773
0.03032
0.13704
0.12784
-0.17719
-0.05224
-0.00976
0.02472
0.27026
0.26904
0.02623
0.09500
0.02623
0.09500
0.26904
0.27026
0.02472
-0.00976
0.02059
0.37148
0.34336
0.34058
0.37423
0.33324
0.37423
0.33324
0.34058
0.34336
0.37148
0.02059
-0.01639
0.18900
0.25431
0.25279
0.19067
0.02477
0.19067
0.02477
0.25279
0.25431
0.18900
-0.01639
0.01100
0.35882
0.09647
0.09674
0.36245
-0.06564
0.36245
-0.06564
0.09674
0.09647
0.35882
0.01100
-0.04567
0.06638
-0.00472
0.09818
-0.01984
0.02614
0.00497
0.00340
0.06568
-0.02627
0.01733
0.00542
0.02240
0.01842
0.06568
0.01481
0.19121
0.05202
0.01354
0.01842
0.00340
-0.00472
-0.05994
-0.05814
-0.05330
-0.02942
-0.05330
-0.05814
-0.05994
0.06638
0.01354
0.05202
0.19121
0.01481
-0.04567
0.02240
0.00542
0.01733
-0.02627
0.00497
0.02614
-0.01984
0.09818
-0.00819
-0.03903
-0.05367
0.17530
0.00422
-0.06189
-0.04199
-0.05458
-0.03762
-0.00182
0.13489
-0.04699
-0.06468
-0.02763
-0.03762
-0.03507
0.29573
0.01286
-0.03363
-0.02763
-0.05458
-0.05367
-0.07457
-0.07536
-0.08154
0.16912
-0.08154
-0.07536
-0.07457
-0.03903
-0.03363
0.01286
0.29573
-0.03507
-0.00819
-0.06468
-0.04699
0.13489
-0.00182
-0.04199
-0.06189
0.00422
0.17530
-0.01173
-0.11273
-0.09677
0.19609
0.00645
-0.07922
-0.07905
-0.09864
-0.11095
0.00395
0.18144
-0.08187
-0.07926
-0.09060
-0.11095
-0.04145
0.16641
-0.05059
-0.04065
-0.09060
-0.09864
-0.09677
-0.05725
-0.05850
-0.01003
0.02140
-0.01003
-0.05850
-0.05725
-0.11273
-0.04065
-0.05059
0.16641
-0.04145
-0.01173
-0.07926
-0.08187
0.18144
0.00395
-0.07905
-0.07922
0.00645
0.19609
-0.01639
-0.07183
-0.07526
0.26443
0.03419
-0.07932
-0.06928
-0.07638
-0.07053
0.03468
0.25631
-0.06975
-0.07751
0.00120
-0.07053
-0.09751
0.27664
0.03914
-0.09862
0.00120
-0.07638
-0.07526
-0.09399
-0.09568
-0.00820
0.21141
-0.00820
-0.09568
-0.09399
-0.07183
-0.09862
0.03914
0.27664
-0.09751
-0.01639
-0.07751
-0.06975
0.25631
0.03468
-0.06928
-0.07932
0.03419
0.26443
0.10000
