# vtk DataFile Version 3.0
Point representing Sub_cellular elem model
ASCII

DATASET UNSTRUCTURED_GRID
POINTS 36 float
-39.25742 -23.66059 63.41596 
-39.24129 23.65208 63.15677 
0.01606 -41.53146 67.16401 
-0.00000 -0.00000 77.33666 
-0.01606 41.53146 67.16401 
39.24129 -23.65208 63.15677 
39.25742 23.66059 63.41596 
-33.32274 -20.86535 55.38621 
-33.30706 20.83939 55.33947 
-0.00918 -35.58686 58.68316 
-0.00000 -0.00000 67.34940 
0.00918 35.58686 58.68316 
33.30706 -20.83939 55.33947 
33.32274 20.86535 55.38621 
-27.88865 -17.77418 46.88350 
-27.88511 17.76855 46.91675 
-0.00849 -29.70845 49.69276 
-0.00000 0.00000 56.87817 
0.00849 29.70845 49.69276 
27.88511 -17.76855 46.91675 
27.88865 17.77418 46.88350 
-23.12553 -14.64470 37.97146 
-23.13308 14.65619 38.03501 
-0.00671 -25.22457 40.32247 
-0.00000 0.00000 47.00959 
0.00671 25.22457 40.32247 
23.13308 -14.65619 38.03501 
23.12553 14.64470 37.97146 
-17.17980 -11.68264 29.54817 
-17.21312 11.72006 29.63478 
-0.00056 -19.52632 31.20978 
-0.00000 0.00000 36.44905 
0.00056 19.52632 31.20978 
17.21312 -11.72006 29.63478 
17.17980 11.68264 29.54817 
0.00000 0.00000 -0.10000 
CELLS 233 698
2 0 1
2 0 2
2 0 3
2 1 3
2 1 4
2 2 3
2 2 5
2 3 4
2 3 5
2 3 6
2 4 6
2 5 6
2 7 8
2 7 9
2 7 10
2 8 10
2 8 11
2 9 10
2 9 12
2 10 11
2 10 12
2 10 13
2 11 13
2 12 13
2 14 15
2 14 16
2 14 17
2 15 17
2 15 18
2 16 17
2 16 19
2 17 18
2 17 19
2 17 20
2 18 20
2 19 20
2 21 22
2 21 23
2 21 24
2 22 24
2 22 25
2 23 24
2 23 26
2 24 25
2 24 26
2 24 27
2 25 27
2 26 27
2 28 29
2 28 30
2 28 31
2 29 31
2 29 32
2 30 31
2 30 33
2 31 32
2 31 33
2 31 34
2 32 34
2 33 34
2 0 1
2 0 2
2 0 3
2 0 7
2 0 8
2 0 9
2 0 10
2 1 3
2 1 4
2 1 7
2 1 8
2 1 10
2 1 11
2 2 3
2 2 5
2 2 7
2 2 9
2 2 10
2 2 12
2 3 4
2 3 5
2 3 6
2 3 7
2 3 8
2 3 9
2 3 10
2 3 11
2 3 12
2 3 13
2 4 6
2 4 8
2 4 10
2 4 11
2 4 13
2 5 6
2 5 9
2 5 10
2 5 12
2 5 13
2 6 10
2 6 11
2 6 12
2 6 13
2 7 8
2 7 9
2 7 10
2 7 14
2 7 15
2 7 16
2 7 17
2 8 10
2 8 11
2 8 14
2 8 15
2 8 17
2 8 18
2 9 10
2 9 12
2 9 14
2 9 16
2 9 17
2 9 19
2 10 11
2 10 12
2 10 13
2 10 14
2 10 15
2 10 16
2 10 17
2 10 18
2 10 19
2 10 20
2 11 13
2 11 15
2 11 17
2 11 18
2 11 20
2 12 13
2 12 16
2 12 17
2 12 19
2 12 20
2 13 17
2 13 18
2 13 19
2 13 20
2 14 15
2 14 16
2 14 17
2 14 21
2 14 22
2 14 23
2 14 24
2 15 17
2 15 18
2 15 21
2 15 22
2 15 24
2 15 25
2 16 17
2 16 19
2 16 21
2 16 23
2 16 24
2 16 26
2 17 18
2 17 19
2 17 20
2 17 21
2 17 22
2 17 23
2 17 24
2 17 25
2 17 26
2 17 27
2 18 20
2 18 22
2 18 24
2 18 25
2 18 27
2 19 20
2 19 23
2 19 24
2 19 26
2 19 27
2 20 24
2 20 25
2 20 26
2 20 27
2 21 22
2 21 23
2 21 24
2 21 28
2 21 29
2 21 30
2 21 31
2 22 24
2 22 25
2 22 28
2 22 29
2 22 31
2 22 32
2 23 24
2 23 26
2 23 28
2 23 30
2 23 31
2 23 33
2 24 25
2 24 26
2 24 27
2 24 28
2 24 29
2 24 30
2 24 31
2 24 32
2 24 33
2 24 34
2 25 27
2 25 29
2 25 31
2 25 32
2 25 34
2 26 27
2 26 30
2 26 31
2 26 33
2 26 34
2 27 31
2 27 32
2 27 33
2 27 34
1 35
CELL_TYPES 233
3
3
3
3
3
3
3
3
3
3
3
3
3
3
3
3
3
3
3
3
3
3
3
3
3
3
3
3
3
3
3
3
3
3
3
3
3
3
3
3
3
3
3
3
3
3
3
3
3
3
3
3
3
3
3
3
3
3
3
3
3
3
3
3
3
3
3
3
3
3
3
3
3
3
3
3
3
3
3
3
3
3
3
3
3
3
3
3
3
3
3
3
3
3
3
3
3
3
3
3
3
3
3
3
3
3
3
3
3
3
3
3
3
3
3
3
3
3
3
3
3
3
3
3
3
3
3
3
3
3
3
3
3
3
3
3
3
3
3
3
3
3
3
3
3
3
3
3
3
3
3
3
3
3
3
3
3
3
3
3
3
3
3
3
3
3
3
3
3
3
3
3
3
3
3
3
3
3
3
3
3
3
3
3
3
3
3
3
3
3
3
3
3
3
3
3
3
3
3
3
3
3
3
3
3
3
3
3
3
3
3
3
3
3
3
3
3
3
3
3
3
3
3
3
3
3
3
3
3
3
3
3
1
CELL_DATA 233
SCALARS Strain double 1
LOOKUP_TABLE default
-0.01637
-0.06608
0.03617
0.03744
-0.06644
0.01108
-0.06644
0.01108
0.03744
0.03617
-0.06608
-0.01637
-0.00316
0.00860
0.06800
0.06768
0.00907
0.02646
0.00907
0.02646
0.06768
0.06800
0.00860
-0.00316
0.00737
0.08651
0.08022
0.07974
0.08692
0.07705
0.08692
0.07705
0.07974
0.08022
0.08651
0.00737
-0.00524
0.05248
0.06630
0.06600
0.05283
0.00911
0.05283
0.00911
0.06600
0.06630
0.05248
-0.00524
0.00549
0.07467
0.02466
0.02555
0.07514
-0.01773
0.07514
-0.01773
0.02555
0.02466
0.07467
0.00549
-0.01423
0.02043
-0.00194
0.03687
-0.00623
0.01059
0.00223
-0.00072
0.02003
-0.00710
0.02096
0.00233
0.01000
0.00743
0.02003
0.00233
0.03568
0.01645
0.00203
0.00743
-0.00072
-0.00194
-0.01903
-0.01905
-0.01665
-0.00127
-0.01665
-0.01905
-0.01903
0.02043
0.00203
0.01645
0.03568
0.00233
-0.01423
0.01000
0.00233
0.02096
-0.00710
0.00223
0.01059
-0.00623
0.03687
-0.00266
-0.01104
-0.01722
0.05537
0.00117
-0.01788
-0.01335
-0.01751
-0.01057
0.00054
0.04771
-0.01398
-0.01788
-0.00951
-0.01057
-0.01253
0.07417
0.00173
-0.01244
-0.00951
-0.01751
-0.01722
-0.02471
-0.02527
-0.02844
0.04712
-0.02844
-0.02527
-0.02471
-0.01104
-0.01244
0.00173
0.07417
-0.01253
-0.00266
-0.01788
-0.01398
0.04771
0.00054
-0.01335
-0.01788
0.00117
0.05537
-0.00261
-0.03352
-0.03052
0.05785
0.00129
-0.02468
-0.02464
-0.03095
-0.03315
0.00157
0.05429
-0.02482
-0.02408
-0.03009
-0.03315
-0.01210
0.03878
-0.01701
-0.01248
-0.03009
-0.03095
-0.03052
-0.01886
-0.01962
-0.00570
-0.01314
-0.00570
-0.01962
-0.01886
-0.03352
-0.01248
-0.01701
0.03878
-0.01210
-0.00261
-0.02408
-0.02482
0.05429
0.00157
-0.02464
-0.02468
0.00129
0.05785
-0.00524
-0.01976
-0.02137
0.07275
0.00886
-0.02532
-0.02188
-0.02164
-0.01943
0.00990
0.06880
-0.02131
-0.02440
0.00185
-0.01943
-0.03336
0.07476
0.01184
-0.03439
0.00185
-0.02164
-0.02137
-0.03172
-0.03238
-0.00411
0.05605
-0.00411
-0.03238
-0.03172
-0.01976
-0.03439
0.01184
0.07476
-0.03336
-0.00524
-0.02440
-0.02131
0.06880
0.00990
-0.02188
-0.02532
0.00886
0.07275
0.10000
