# vtk DataFile Version 3.0
Point representing Sub_cellular elem model
ASCII

DATASET UNSTRUCTURED_GRID
POINTS 36 float
-39.83313 -23.04811 64.18331 
-39.74990 23.02396 62.95215 
0.08197 -42.62766 70.01508 
-0.00000 0.00000 77.09497 
-0.08197 42.62766 70.01508 
39.74990 -23.02396 62.95215 
39.83313 23.04811 64.18331 
-32.30929 -20.80037 56.62081 
-32.22094 20.70352 56.28932 
-0.02276 -35.53081 61.02203 
-0.00000 0.00000 67.27882 
0.02276 35.53081 61.02203 
32.22094 -20.70352 56.28932 
32.30929 20.80037 56.62081 
-26.14375 -17.66485 47.41515 
-26.10002 17.62638 47.39171 
-0.03407 -28.56489 50.73133 
-0.00000 0.00000 55.84876 
0.03407 28.56489 50.73133 
26.10002 -17.62638 47.39171 
26.14375 17.66485 47.41515 
-21.77424 -14.51312 37.06743 
-21.76171 14.52492 37.13486 
-0.02774 -25.40718 39.82893 
-0.00000 0.00000 45.78252 
0.02774 25.40718 39.82893 
21.76171 -14.52492 37.13486 
21.77424 14.51312 37.06743 
-14.22602 -11.73724 27.86017 
-14.25789 11.78589 27.97795 
-0.01992 -18.88994 29.37077 
-0.00000 0.00000 34.01627 
0.01992 18.88994 29.37077 
14.25789 -11.78589 27.97795 
14.22602 11.73724 27.86017 
0.00000 0.00000 -0.10000 
CELLS 233 698
2 0 1
2 0 2
2 0 3
2 1 3
2 1 4
2 2 3
2 2 5
2 3 4
2 3 5
2 3 6
2 4 6
2 5 6
2 7 8
2 7 9
2 7 10
2 8 10
2 8 11
2 9 10
2 9 12
2 10 11
2 10 12
2 10 13
2 11 13
2 12 13
2 14 15
2 14 16
2 14 17
2 15 17
2 15 18
2 16 17
2 16 19
2 17 18
2 17 19
2 17 20
2 18 20
2 19 20
2 21 22
2 21 23
2 21 24
2 22 24
2 22 25
2 23 24
2 23 26
2 24 25
2 24 26
2 24 27
2 25 27
2 26 27
2 28 29
2 28 30
2 28 31
2 29 31
2 29 32
2 30 31
2 30 33
2 31 32
2 31 33
2 31 34
2 32 34
2 33 34
2 0 1
2 0 2
2 0 3
2 0 7
2 0 8
2 0 9
2 0 10
2 1 3
2 1 4
2 1 7
2 1 8
2 1 10
2 1 11
2 2 3
2 2 5
2 2 7
2 2 9
2 2 10
2 2 12
2 3 4
2 3 5
2 3 6
2 3 7
2 3 8
2 3 9
2 3 10
2 3 11
2 3 12
2 3 13
2 4 6
2 4 8
2 4 10
2 4 11
2 4 13
2 5 6
2 5 9
2 5 10
2 5 12
2 5 13
2 6 10
2 6 11
2 6 12
2 6 13
2 7 8
2 7 9
2 7 10
2 7 14
2 7 15
2 7 16
2 7 17
2 8 10
2 8 11
2 8 14
2 8 15
2 8 17
2 8 18
2 9 10
2 9 12
2 9 14
2 9 16
2 9 17
2 9 19
2 10 11
2 10 12
2 10 13
2 10 14
2 10 15
2 10 16
2 10 17
2 10 18
2 10 19
2 10 20
2 11 13
2 11 15
2 11 17
2 11 18
2 11 20
2 12 13
2 12 16
2 12 17
2 12 19
2 12 20
2 13 17
2 13 18
2 13 19
2 13 20
2 14 15
2 14 16
2 14 17
2 14 21
2 14 22
2 14 23
2 14 24
2 15 17
2 15 18
2 15 21
2 15 22
2 15 24
2 15 25
2 16 17
2 16 19
2 16 21
2 16 23
2 16 24
2 16 26
2 17 18
2 17 19
2 17 20
2 17 21
2 17 22
2 17 23
2 17 24
2 17 25
2 17 26
2 17 27
2 18 20
2 18 22
2 18 24
2 18 25
2 18 27
2 19 20
2 19 23
2 19 24
2 19 26
2 19 27
2 20 24
2 20 25
2 20 26
2 20 27
2 21 22
2 21 23
2 21 24
2 21 28
2 21 29
2 21 30
2 21 31
2 22 24
2 22 25
2 22 28
2 22 29
2 22 31
2 22 32
2 23 24
2 23 26
2 23 28
2 23 30
2 23 31
2 23 33
2 24 25
2 24 26
2 24 27
2 24 28
2 24 29
2 24 30
2 24 31
2 24 32
2 24 33
2 24 34
2 25 27
2 25 29
2 25 31
2 25 32
2 25 34
2 26 27
2 26 30
2 26 31
2 26 33
2 26 34
2 27 31
2 27 32
2 27 33
2 27 34
1 35
CELL_TYPES 233
3
3
3
3
3
3
3
3
3
3
3
3
3
3
3
3
3
3
3
3
3
3
3
3
3
3
3
3
3
3
3
3
3
3
3
3
3
3
3
3
3
3
3
3
3
3
3
3
3
3
3
3
3
3
3
3
3
3
3
3
3
3
3
3
3
3
3
3
3
3
3
3
3
3
3
3
3
3
3
3
3
3
3
3
3
3
3
3
3
3
3
3
3
3
3
3
3
3
3
3
3
3
3
3
3
3
3
3
3
3
3
3
3
3
3
3
3
3
3
3
3
3
3
3
3
3
3
3
3
3
3
3
3
3
3
3
3
3
3
3
3
3
3
3
3
3
3
3
3
3
3
3
3
3
3
3
3
3
3
3
3
3
3
3
3
3
3
3
3
3
3
3
3
3
3
3
3
3
3
3
3
3
3
3
3
3
3
3
3
3
3
3
3
3
3
3
3
3
3
3
3
3
3
3
3
3
3
3
3
3
3
3
3
3
3
3
3
3
3
3
3
3
3
3
3
3
3
3
3
3
3
3
1
CELL_DATA 233
SCALARS Strain double 1
LOOKUP_TABLE default
-0.04546
-0.15844
0.10821
0.11440
-0.15903
0.02834
-0.15903
0.02834
0.11440
0.10821
-0.15844
-0.04546
-0.00879
0.02189
0.22253
0.22155
0.02314
0.07996
0.02314
0.07996
0.22155
0.22253
0.02189
-0.00879
0.01815
0.29983
0.27753
0.27559
0.30165
0.26880
0.30165
0.26880
0.27559
0.27753
0.29983
0.01815
-0.01417
0.15910
0.21076
0.20967
0.16030
0.02210
0.16030
0.02210
0.20967
0.21076
0.15910
-0.01417
0.01067
0.28086
0.07962
0.08050
0.28339
-0.05482
0.28339
-0.05482
0.08050
0.07962
0.28086
0.01067
-0.03975
0.05645
-0.00415
0.09019
-0.01737
0.02402
0.00484
0.00141
0.05570
-0.02184
0.03181
0.00517
0.02148
0.01809
0.05570
0.01058
0.14565
0.04542
0.00968
0.01809
0.00141
-0.00415
-0.05146
-0.05047
-0.04558
-0.01839
-0.04558
-0.05047
-0.05146
0.05645
0.00968
0.04542
0.14565
0.01058
-0.03975
0.02148
0.00517
0.03181
-0.02184
0.00484
0.02402
-0.01737
0.09019
-0.00743
-0.03295
-0.04638
0.15147
0.00320
-0.05220
-0.03619
-0.04715
-0.03177
-0.00074
0.12295
-0.03950
-0.05369
-0.02436
-0.03177
-0.03158
0.24267
0.00940
-0.03072
-0.02436
-0.04715
-0.04638
-0.06502
-0.06593
-0.07195
0.14301
-0.07195
-0.06593
-0.06502
-0.03295
-0.03072
0.00940
0.24267
-0.03158
-0.00743
-0.05369
-0.03950
0.12295
-0.00074
-0.03619
-0.05220
0.00320
0.15147
-0.00967
-0.09602
-0.08351
0.16662
0.00495
-0.06819
-0.06820
-0.08491
-0.09476
0.00373
0.15604
-0.06993
-0.06769
-0.07912
-0.09476
-0.03541
0.13504
-0.04465
-0.03527
-0.07912
-0.08491
-0.08351
-0.05004
-0.05129
-0.01020
0.00662
-0.01020
-0.05129
-0.05004
-0.09602
-0.03527
-0.04465
0.13504
-0.03541
-0.00967
-0.06769
-0.06993
0.15604
0.00373
-0.06820
-0.06819
0.00495
0.16662
-0.01417
-0.06023
-0.06364
0.22253
0.02835
-0.06877
-0.06005
-0.06449
-0.05925
0.02944
0.21516
-0.05991
-0.06697
0.00183
-0.05925
-0.08575
0.23227
0.03339
-0.08716
0.00183
-0.06449
-0.06364
-0.08247
-0.08396
-0.00785
0.17663
-0.00785
-0.08396
-0.08247
-0.06023
-0.08716
0.03339
0.23227
-0.08575
-0.01417
-0.06697
-0.05991
0.21516
0.02944
-0.06005
-0.06877
0.02835
0.22253
0.10000
