# vtk DataFile Version 3.0
Point representing Sub_cellular elem model
ASCII

DATASET UNSTRUCTURED_GRID
POINTS 36 float
-39.01270 -23.86173 63.07134 
-39.00629 23.85872 62.98005 
0.00565 -41.11876 66.48225 
0.00000 -0.00000 77.50726 
-0.00565 41.11876 66.48225 
39.00629 -23.85872 62.98005 
39.01270 23.86173 63.07134 
-33.62736 -20.89112 54.99499 
-33.62262 20.88139 54.98242 
-0.00366 -35.58350 57.99749 
0.00000 -0.00000 67.50933 
0.00366 35.58350 57.99749 
33.62262 -20.88139 54.98242 
33.62736 20.89112 54.99499 
-28.44899 -17.80222 46.73960 
-28.44921 17.80071 46.75794 
-0.00293 -30.07142 49.31565 
0.00000 -0.00000 57.32667 
0.00293 30.07142 49.31565 
28.44921 -17.80071 46.75794 
28.44899 17.80222 46.73960 
-23.54805 -14.69304 38.31594 
-23.55274 14.69857 38.34755 
-0.00220 -25.12985 40.45739 
-0.00000 -0.00000 47.40217 
0.00220 25.12985 40.45739 
23.55274 -14.69857 38.34755 
23.54805 14.69304 38.31594 
-18.15910 -11.65677 30.10061 
-18.17550 11.67481 30.14256 
0.00066 -19.69214 31.72073 
-0.00000 0.00000 37.18496 
-0.00066 19.69214 31.72073 
18.17550 -11.67481 30.14256 
18.15910 11.65677 30.10061 
0.00000 0.00000 -0.10000 
CELLS 233 698
2 0 1
2 0 2
2 0 3
2 1 3
2 1 4
2 2 3
2 2 5
2 3 4
2 3 5
2 3 6
2 4 6
2 5 6
2 7 8
2 7 9
2 7 10
2 8 10
2 8 11
2 9 10
2 9 12
2 10 11
2 10 12
2 10 13
2 11 13
2 12 13
2 14 15
2 14 16
2 14 17
2 15 17
2 15 18
2 16 17
2 16 19
2 17 18
2 17 19
2 17 20
2 18 20
2 19 20
2 21 22
2 21 23
2 21 24
2 22 24
2 22 25
2 23 24
2 23 26
2 24 25
2 24 26
2 24 27
2 25 27
2 26 27
2 28 29
2 28 30
2 28 31
2 29 31
2 29 32
2 30 31
2 30 33
2 31 32
2 31 33
2 31 34
2 32 34
2 33 34
2 0 1
2 0 2
2 0 3
2 0 7
2 0 8
2 0 9
2 0 10
2 1 3
2 1 4
2 1 7
2 1 8
2 1 10
2 1 11
2 2 3
2 2 5
2 2 7
2 2 9
2 2 10
2 2 12
2 3 4
2 3 5
2 3 6
2 3 7
2 3 8
2 3 9
2 3 10
2 3 11
2 3 12
2 3 13
2 4 6
2 4 8
2 4 10
2 4 11
2 4 13
2 5 6
2 5 9
2 5 10
2 5 12
2 5 13
2 6 10
2 6 11
2 6 12
2 6 13
2 7 8
2 7 9
2 7 10
2 7 14
2 7 15
2 7 16
2 7 17
2 8 10
2 8 11
2 8 14
2 8 15
2 8 17
2 8 18
2 9 10
2 9 12
2 9 14
2 9 16
2 9 17
2 9 19
2 10 11
2 10 12
2 10 13
2 10 14
2 10 15
2 10 16
2 10 17
2 10 18
2 10 19
2 10 20
2 11 13
2 11 15
2 11 17
2 11 18
2 11 20
2 12 13
2 12 16
2 12 17
2 12 19
2 12 20
2 13 17
2 13 18
2 13 19
2 13 20
2 14 15
2 14 16
2 14 17
2 14 21
2 14 22
2 14 23
2 14 24
2 15 17
2 15 18
2 15 21
2 15 22
2 15 24
2 15 25
2 16 17
2 16 19
2 16 21
2 16 23
2 16 24
2 16 26
2 17 18
2 17 19
2 17 20
2 17 21
2 17 22
2 17 23
2 17 24
2 17 25
2 17 26
2 17 27
2 18 20
2 18 22
2 18 24
2 18 25
2 18 27
2 19 20
2 19 23
2 19 24
2 19 26
2 19 27
2 20 24
2 20 25
2 20 26
2 20 27
2 21 22
2 21 23
2 21 24
2 21 28
2 21 29
2 21 30
2 21 31
2 22 24
2 22 25
2 22 28
2 22 29
2 22 31
2 22 32
2 23 24
2 23 26
2 23 28
2 23 30
2 23 31
2 23 33
2 24 25
2 24 26
2 24 27
2 24 28
2 24 29
2 24 30
2 24 31
2 24 32
2 24 33
2 24 34
2 25 27
2 25 29
2 25 31
2 25 32
2 25 34
2 26 27
2 26 30
2 26 31
2 26 33
2 26 34
2 27 31
2 27 32
2 27 33
2 27 34
1 35
CELL_TYPES 233
3
3
3
3
3
3
3
3
3
3
3
3
3
3
3
3
3
3
3
3
3
3
3
3
3
3
3
3
3
3
3
3
3
3
3
3
3
3
3
3
3
3
3
3
3
3
3
3
3
3
3
3
3
3
3
3
3
3
3
3
3
3
3
3
3
3
3
3
3
3
3
3
3
3
3
3
3
3
3
3
3
3
3
3
3
3
3
3
3
3
3
3
3
3
3
3
3
3
3
3
3
3
3
3
3
3
3
3
3
3
3
3
3
3
3
3
3
3
3
3
3
3
3
3
3
3
3
3
3
3
3
3
3
3
3
3
3
3
3
3
3
3
3
3
3
3
3
3
3
3
3
3
3
3
3
3
3
3
3
3
3
3
3
3
3
3
3
3
3
3
3
3
3
3
3
3
3
3
3
3
3
3
3
3
3
3
3
3
3
3
3
3
3
3
3
3
3
3
3
3
3
3
3
3
3
3
3
3
3
3
3
3
3
3
3
3
3
3
3
3
3
3
3
3
3
3
3
3
3
3
3
3
1
CELL_DATA 233
SCALARS Strain double 1
LOOKUP_TABLE default
-0.00663
-0.02839
0.01440
0.01485
-0.02856
0.00448
-0.02856
0.00448
0.01485
0.01440
-0.02839
-0.00663
-0.00125
0.00360
0.02638
0.02625
0.00380
0.01054
0.00380
0.01054
0.02625
0.02638
0.00360
-0.00125
0.00314
0.03310
0.03069
0.03051
0.03326
0.02939
0.03326
0.02939
0.03051
0.03069
0.03310
0.00314
-0.00217
0.02083
0.02599
0.02588
0.02096
0.00388
0.02096
0.00388
0.02588
0.02599
0.02083
-0.00217
0.00242
0.02808
0.00966
0.01008
0.02824
-0.00709
0.02824
-0.00709
0.01008
0.00966
0.02808
0.00242
-0.00575
0.00840
-0.00085
0.01515
-0.00252
0.00459
0.00096
-0.00041
0.00822
-0.00280
0.00901
0.00100
0.00435
0.00300
0.00822
0.00084
0.01307
0.00666
0.00072
0.00300
-0.00041
-0.00085
-0.00786
-0.00790
-0.00682
-0.00021
-0.00682
-0.00790
-0.00786
0.00840
0.00072
0.00666
0.01307
0.00084
-0.00575
0.00435
0.00100
0.00901
-0.00280
0.00096
0.00459
-0.00252
0.01515
-0.00104
-0.00439
-0.00710
0.02229
0.00049
-0.00721
-0.00551
-0.00722
-0.00419
0.00031
0.01929
-0.00572
-0.00716
-0.00394
-0.00419
-0.00525
0.02839
0.00052
-0.00522
-0.00394
-0.00722
-0.00710
-0.01027
-0.01053
-0.01193
0.01827
-0.01193
-0.01053
-0.01027
-0.00439
-0.00522
0.00052
0.02839
-0.00525
-0.00104
-0.00716
-0.00572
0.01929
0.00031
-0.00551
-0.00721
0.00049
0.02229
-0.00092
-0.01355
-0.01251
0.02295
0.00045
-0.01008
-0.01004
-0.01268
-0.01340
0.00064
0.02143
-0.01007
-0.00979
-0.01247
-0.01340
-0.00489
0.01433
-0.00703
-0.00509
-0.01247
-0.01268
-0.01251
-0.00780
-0.00816
-0.00259
-0.00755
-0.00259
-0.00816
-0.00780
-0.01355
-0.00509
-0.00703
0.01433
-0.00489
-0.00092
-0.00979
-0.01007
0.02143
0.00064
-0.01004
-0.01008
0.00045
0.02295
-0.00217
-0.00782
-0.00849
0.02836
0.00340
-0.01035
-0.00889
-0.00860
-0.00769
0.00389
0.02655
-0.00860
-0.00993
0.00092
-0.00769
-0.01398
0.02907
0.00478
-0.01446
0.00092
-0.00860
-0.00849
-0.01320
-0.01348
-0.00192
0.02172
-0.00192
-0.01348
-0.01320
-0.00782
-0.01446
0.00478
0.02907
-0.01398
-0.00217
-0.00993
-0.00860
0.02655
0.00389
-0.00889
-0.01035
0.00340
0.02836
0.10000
