# vtk DataFile Version 3.0
Point representing Sub_cellular elem model
ASCII

DATASET UNSTRUCTURED_GRID
POINTS 36 float
-39.73867 -23.17190 64.07037 
-39.68159 23.15047 63.15335 
0.05915 -42.43554 69.27278 
-0.00000 0.00000 77.11715 
-0.05915 42.43554 69.27278 
39.68159 -23.15047 63.15335 
39.73867 23.17190 64.07037 
-32.53158 -20.80798 56.35934 
-32.46725 20.73160 56.12659 
-0.02043 -35.54561 60.49355 
-0.00000 0.00000 67.24075 
0.02043 35.54561 60.49355 
32.46725 -20.73160 56.12659 
32.53158 20.80798 56.35934 
-26.50902 -17.68810 47.29217 
-26.47863 17.66085 47.29676 
-0.02678 -28.80045 50.52234 
-0.00000 0.00000 56.01568 
0.02678 28.80045 50.52234 
26.47863 -17.66085 47.29676 
26.50902 17.68810 47.29217 
-22.06085 -14.53837 37.23701 
-22.05630 14.55259 37.31352 
-0.02202 -25.38171 39.93833 
-0.00000 0.00000 46.03795 
0.02202 25.38171 39.93833 
22.05630 -14.55259 37.31352 
22.06085 14.53837 37.23701 
-14.83250 -11.72932 28.21097 
-14.87080 11.78026 28.33153 
-0.01368 -19.03588 29.77771 
-0.00000 0.00000 34.53920 
0.01368 19.03588 29.77771 
14.87080 -11.78026 28.33153 
14.83250 11.72932 28.21097 
0.00000 0.00000 -0.10000 
CELLS 233 698
2 0 1
2 0 2
2 0 3
2 1 3
2 1 4
2 2 3
2 2 5
2 3 4
2 3 5
2 3 6
2 4 6
2 5 6
2 7 8
2 7 9
2 7 10
2 8 10
2 8 11
2 9 10
2 9 12
2 10 11
2 10 12
2 10 13
2 11 13
2 12 13
2 14 15
2 14 16
2 14 17
2 15 17
2 15 18
2 16 17
2 16 19
2 17 18
2 17 19
2 17 20
2 18 20
2 19 20
2 21 22
2 21 23
2 21 24
2 22 24
2 22 25
2 23 24
2 23 26
2 24 25
2 24 26
2 24 27
2 25 27
2 26 27
2 28 29
2 28 30
2 28 31
2 29 31
2 29 32
2 30 31
2 30 33
2 31 32
2 31 33
2 31 34
2 32 34
2 33 34
2 0 1
2 0 2
2 0 3
2 0 7
2 0 8
2 0 9
2 0 10
2 1 3
2 1 4
2 1 7
2 1 8
2 1 10
2 1 11
2 2 3
2 2 5
2 2 7
2 2 9
2 2 10
2 2 12
2 3 4
2 3 5
2 3 6
2 3 7
2 3 8
2 3 9
2 3 10
2 3 11
2 3 12
2 3 13
2 4 6
2 4 8
2 4 10
2 4 11
2 4 13
2 5 6
2 5 9
2 5 10
2 5 12
2 5 13
2 6 10
2 6 11
2 6 12
2 6 13
2 7 8
2 7 9
2 7 10
2 7 14
2 7 15
2 7 16
2 7 17
2 8 10
2 8 11
2 8 14
2 8 15
2 8 17
2 8 18
2 9 10
2 9 12
2 9 14
2 9 16
2 9 17
2 9 19
2 10 11
2 10 12
2 10 13
2 10 14
2 10 15
2 10 16
2 10 17
2 10 18
2 10 19
2 10 20
2 11 13
2 11 15
2 11 17
2 11 18
2 11 20
2 12 13
2 12 16
2 12 17
2 12 19
2 12 20
2 13 17
2 13 18
2 13 19
2 13 20
2 14 15
2 14 16
2 14 17
2 14 21
2 14 22
2 14 23
2 14 24
2 15 17
2 15 18
2 15 21
2 15 22
2 15 24
2 15 25
2 16 17
2 16 19
2 16 21
2 16 23
2 16 24
2 16 26
2 17 18
2 17 19
2 17 20
2 17 21
2 17 22
2 17 23
2 17 24
2 17 25
2 17 26
2 17 27
2 18 20
2 18 22
2 18 24
2 18 25
2 18 27
2 19 20
2 19 23
2 19 24
2 19 26
2 19 27
2 20 24
2 20 25
2 20 26
2 20 27
2 21 22
2 21 23
2 21 24
2 21 28
2 21 29
2 21 30
2 21 31
2 22 24
2 22 25
2 22 28
2 22 29
2 22 31
2 22 32
2 23 24
2 23 26
2 23 28
2 23 30
2 23 31
2 23 33
2 24 25
2 24 26
2 24 27
2 24 28
2 24 29
2 24 30
2 24 31
2 24 32
2 24 33
2 24 34
2 25 27
2 25 29
2 25 31
2 25 32
2 25 34
2 26 27
2 26 30
2 26 31
2 26 33
2 26 34
2 27 31
2 27 32
2 27 33
2 27 34
1 35
CELL_TYPES 233
3
3
3
3
3
3
3
3
3
3
3
3
3
3
3
3
3
3
3
3
3
3
3
3
3
3
3
3
3
3
3
3
3
3
3
3
3
3
3
3
3
3
3
3
3
3
3
3
3
3
3
3
3
3
3
3
3
3
3
3
3
3
3
3
3
3
3
3
3
3
3
3
3
3
3
3
3
3
3
3
3
3
3
3
3
3
3
3
3
3
3
3
3
3
3
3
3
3
3
3
3
3
3
3
3
3
3
3
3
3
3
3
3
3
3
3
3
3
3
3
3
3
3
3
3
3
3
3
3
3
3
3
3
3
3
3
3
3
3
3
3
3
3
3
3
3
3
3
3
3
3
3
3
3
3
3
3
3
3
3
3
3
3
3
3
3
3
3
3
3
3
3
3
3
3
3
3
3
3
3
3
3
3
3
3
3
3
3
3
3
3
3
3
3
3
3
3
3
3
3
3
3
3
3
3
3
3
3
3
3
3
3
3
3
3
3
3
3
3
3
3
3
3
3
3
3
3
3
3
3
3
3
1
CELL_DATA 233
SCALARS Strain double 1
LOOKUP_TABLE default
-0.03970
-0.14198
0.09276
0.09735
-0.14257
0.02565
-0.14257
0.02565
0.09735
0.09276
-0.14198
-0.03970
-0.00778
0.01943
0.18695
0.18613
0.02050
0.06833
0.02050
0.06833
0.18613
0.18695
0.01943
-0.00778
0.01614
0.24834
0.23008
0.22858
0.24969
0.22248
0.24969
0.22248
0.22858
0.23008
0.24834
0.01614
-0.01237
0.13593
0.17806
0.17721
0.13688
0.01980
0.13688
0.01980
0.17721
0.17806
0.13593
-0.01237
0.01008
0.22782
0.06708
0.06819
0.22971
-0.04659
0.22971
-0.04659
0.06819
0.06708
0.22782
0.01008
-0.03469
0.04891
-0.00377
0.08162
-0.01519
0.02190
0.00453
0.00041
0.04820
-0.01854
0.03572
0.00479
0.02000
0.01675
0.04820
0.00810
0.11603
0.03976
0.00736
0.01675
0.00041
-0.00377
-0.04488
-0.04429
-0.03962
-0.01236
-0.03962
-0.04429
-0.04488
0.04891
0.00736
0.03976
0.11603
0.00810
-0.03469
0.02000
0.00479
0.03572
-0.01854
0.00453
0.02190
-0.01519
0.08162
-0.00660
-0.02824
-0.04054
0.13233
0.00266
-0.04478
-0.03155
-0.04121
-0.02722
-0.00017
0.11022
-0.03398
-0.04567
-0.02158
-0.02722
-0.02826
0.20384
0.00718
-0.02768
-0.02158
-0.04121
-0.04054
-0.05717
-0.05809
-0.06381
0.12251
-0.06381
-0.05809
-0.05717
-0.02824
-0.02768
0.00718
0.20384
-0.02826
-0.00660
-0.04567
-0.03398
0.11022
-0.00017
-0.03155
-0.04478
0.00266
0.13233
-0.00805
-0.08291
-0.07282
0.14373
0.00399
-0.05932
-0.05939
-0.07395
-0.08192
0.00340
0.13526
-0.06057
-0.05862
-0.06960
-0.08192
-0.03057
0.11224
-0.03948
-0.03072
-0.06960
-0.07395
-0.07282
-0.04402
-0.04523
-0.00989
-0.00223
-0.00989
-0.04523
-0.04402
-0.08291
-0.03072
-0.03948
0.11224
-0.03057
-0.00805
-0.05862
-0.06057
0.13526
0.00340
-0.05939
-0.05932
0.00399
0.14373
-0.01237
-0.05136
-0.05458
0.19001
0.02396
-0.06011
-0.05246
-0.05527
-0.05056
0.02527
0.18320
-0.05203
-0.05842
0.00217
-0.05056
-0.07586
0.19795
0.02887
-0.07736
0.00217
-0.05527
-0.05458
-0.07279
-0.07413
-0.00739
0.14988
-0.00739
-0.07413
-0.07279
-0.05136
-0.07736
0.02887
0.19795
-0.07586
-0.01237
-0.05842
-0.05203
0.18320
0.02527
-0.05246
-0.06011
0.02396
0.19001
0.10000
