# vtk DataFile Version 3.0
Point representing Sub_cellular elem model
ASCII

DATASET UNSTRUCTURED_GRID
POINTS 36 float
-39.17611 -23.73000 63.30111 
-39.16337 23.72343 63.10334 
0.01223 -41.39118 66.92118 
-0.00000 -0.00000 77.38973 
-0.01223 41.39118 66.92118 
39.16337 -23.72343 63.10334 
39.17611 23.73000 63.30111 
-33.42874 -20.87435 55.25065 
-33.41725 20.85409 55.21757 
-0.00733 -35.58756 58.44406 
-0.00000 -0.00000 67.39698 
0.00733 35.58756 58.44406 
33.41725 -20.85409 55.21757 
33.42874 20.87435 55.25065 
-28.08187 -17.78447 46.83229 
-28.08011 17.78048 46.86220 
-0.00647 -29.83457 49.56603 
-0.00000 -0.00000 57.02678 
0.00647 29.83457 49.56603 
28.08011 -17.78048 46.86220 
28.08187 17.78447 46.83229 
-23.27197 -14.66098 38.08695 
-23.27913 14.67078 38.14177 
-0.00504 -25.19401 40.37083 
-0.00000 0.00000 47.14534 
0.00504 25.19401 40.37083 
23.27913 -14.67078 38.14177 
23.27197 14.66098 38.08695 
-17.51578 -11.67406 29.73772 
-17.54446 11.70600 29.81168 
0.00018 -19.58599 31.39194 
-0.00000 0.00000 36.70592 
-0.00018 19.58599 31.39194 
17.54446 -11.70600 29.81168 
17.51578 11.67406 29.73772 
0.00000 0.00000 -0.10000 
CELLS 233 698
2 0 1
2 0 2
2 0 3
2 1 3
2 1 4
2 2 3
2 2 5
2 3 4
2 3 5
2 3 6
2 4 6
2 5 6
2 7 8
2 7 9
2 7 10
2 8 10
2 8 11
2 9 10
2 9 12
2 10 11
2 10 12
2 10 13
2 11 13
2 12 13
2 14 15
2 14 16
2 14 17
2 15 17
2 15 18
2 16 17
2 16 19
2 17 18
2 17 19
2 17 20
2 18 20
2 19 20
2 21 22
2 21 23
2 21 24
2 22 24
2 22 25
2 23 24
2 23 26
2 24 25
2 24 26
2 24 27
2 25 27
2 26 27
2 28 29
2 28 30
2 28 31
2 29 31
2 29 32
2 30 31
2 30 33
2 31 32
2 31 33
2 31 34
2 32 34
2 33 34
2 0 1
2 0 2
2 0 3
2 0 7
2 0 8
2 0 9
2 0 10
2 1 3
2 1 4
2 1 7
2 1 8
2 1 10
2 1 11
2 2 3
2 2 5
2 2 7
2 2 9
2 2 10
2 2 12
2 3 4
2 3 5
2 3 6
2 3 7
2 3 8
2 3 9
2 3 10
2 3 11
2 3 12
2 3 13
2 4 6
2 4 8
2 4 10
2 4 11
2 4 13
2 5 6
2 5 9
2 5 10
2 5 12
2 5 13
2 6 10
2 6 11
2 6 12
2 6 13
2 7 8
2 7 9
2 7 10
2 7 14
2 7 15
2 7 16
2 7 17
2 8 10
2 8 11
2 8 14
2 8 15
2 8 17
2 8 18
2 9 10
2 9 12
2 9 14
2 9 16
2 9 17
2 9 19
2 10 11
2 10 12
2 10 13
2 10 14
2 10 15
2 10 16
2 10 17
2 10 18
2 10 19
2 10 20
2 11 13
2 11 15
2 11 17
2 11 18
2 11 20
2 12 13
2 12 16
2 12 17
2 12 19
2 12 20
2 13 17
2 13 18
2 13 19
2 13 20
2 14 15
2 14 16
2 14 17
2 14 21
2 14 22
2 14 23
2 14 24
2 15 17
2 15 18
2 15 21
2 15 22
2 15 24
2 15 25
2 16 17
2 16 19
2 16 21
2 16 23
2 16 24
2 16 26
2 17 18
2 17 19
2 17 20
2 17 21
2 17 22
2 17 23
2 17 24
2 17 25
2 17 26
2 17 27
2 18 20
2 18 22
2 18 24
2 18 25
2 18 27
2 19 20
2 19 23
2 19 24
2 19 26
2 19 27
2 20 24
2 20 25
2 20 26
2 20 27
2 21 22
2 21 23
2 21 24
2 21 28
2 21 29
2 21 30
2 21 31
2 22 24
2 22 25
2 22 28
2 22 29
2 22 31
2 22 32
2 23 24
2 23 26
2 23 28
2 23 30
2 23 31
2 23 33
2 24 25
2 24 26
2 24 27
2 24 28
2 24 29
2 24 30
2 24 31
2 24 32
2 24 33
2 24 34
2 25 27
2 25 29
2 25 31
2 25 32
2 25 34
2 26 27
2 26 30
2 26 31
2 26 33
2 26 34
2 27 31
2 27 32
2 27 33
2 27 34
1 35
CELL_TYPES 233
3
3
3
3
3
3
3
3
3
3
3
3
3
3
3
3
3
3
3
3
3
3
3
3
3
3
3
3
3
3
3
3
3
3
3
3
3
3
3
3
3
3
3
3
3
3
3
3
3
3
3
3
3
3
3
3
3
3
3
3
3
3
3
3
3
3
3
3
3
3
3
3
3
3
3
3
3
3
3
3
3
3
3
3
3
3
3
3
3
3
3
3
3
3
3
3
3
3
3
3
3
3
3
3
3
3
3
3
3
3
3
3
3
3
3
3
3
3
3
3
3
3
3
3
3
3
3
3
3
3
3
3
3
3
3
3
3
3
3
3
3
3
3
3
3
3
3
3
3
3
3
3
3
3
3
3
3
3
3
3
3
3
3
3
3
3
3
3
3
3
3
3
3
3
3
3
3
3
3
3
3
3
3
3
3
3
3
3
3
3
3
3
3
3
3
3
3
3
3
3
3
3
3
3
3
3
3
3
3
3
3
3
3
3
3
3
3
3
3
3
3
3
3
3
3
3
3
3
3
3
3
3
1
CELL_DATA 233
SCALARS Strain double 1
LOOKUP_TABLE default
-0.01302
-0.05357
0.02857
0.02954
-0.05388
0.00881
-0.05388
0.00881
0.02954
0.02857
-0.05357
-0.01302
-0.00249
0.00691
0.05323
0.05298
0.00729
0.02089
0.00729
0.02089
0.05298
0.05323
0.00691
-0.00249
0.00596
0.06739
0.06249
0.06211
0.06771
0.05995
0.06771
0.05995
0.06211
0.06249
0.06739
0.00596
-0.00420
0.04141
0.05208
0.05185
0.04169
0.00736
0.04169
0.00736
0.05185
0.05208
0.04141
-0.00420
0.00451
0.05779
0.01934
0.02010
0.05814
-0.01399
0.05814
-0.01399
0.02010
0.01934
0.05779
0.00451
-0.01131
0.01632
-0.00159
0.02955
-0.00494
0.00861
0.00181
-0.00065
0.01599
-0.00560
0.01703
0.00189
0.00814
0.00591
0.01599
0.00178
0.02735
0.01308
0.00154
0.00591
-0.00065
-0.00159
-0.01523
-0.01526
-0.01329
-0.00072
-0.01329
-0.01526
-0.01523
0.01632
0.00154
0.01308
0.02735
0.00178
-0.01131
0.00814
0.00189
0.01703
-0.00560
0.00181
0.00861
-0.00494
0.02955
-0.00210
-0.00872
-0.01377
0.04405
0.00095
-0.01419
-0.01068
-0.01401
-0.00834
0.00049
0.03800
-0.01115
-0.01416
-0.00763
-0.00834
-0.01007
0.05791
0.00125
-0.01000
-0.00763
-0.01401
-0.01377
-0.01981
-0.02028
-0.02289
0.03702
-0.02289
-0.02028
-0.01981
-0.00872
-0.01000
0.00125
0.05791
-0.01007
-0.00210
-0.01416
-0.01115
0.03800
0.00049
-0.01068
-0.01419
0.00095
0.04405
-0.00199
-0.02662
-0.02436
0.04581
0.00099
-0.01968
-0.01963
-0.02470
-0.02633
0.00126
0.04290
-0.01975
-0.01917
-0.02411
-0.02633
-0.00958
0.02998
-0.01361
-0.00992
-0.02411
-0.02470
-0.02436
-0.01509
-0.01573
-0.00473
-0.01186
-0.00473
-0.01573
-0.01509
-0.02662
-0.00992
-0.01361
0.02998
-0.00958
-0.00199
-0.01917
-0.01975
0.04290
0.00126
-0.01963
-0.01968
0.00099
0.04581
-0.00420
-0.01558
-0.01688
0.05720
0.00693
-0.02021
-0.01743
-0.01710
-0.01532
0.00781
0.05389
-0.01693
-0.01944
0.00158
-0.01532
-0.02681
0.05863
0.00942
-0.02767
0.00158
-0.01710
-0.01688
-0.02545
-0.02598
-0.00342
0.04394
-0.00342
-0.02598
-0.02545
-0.01558
-0.02767
0.00942
0.05863
-0.02681
-0.00420
-0.01944
-0.01693
0.05389
0.00781
-0.01743
-0.02021
0.00693
0.05720
0.10000
