# vtk DataFile Version 3.0
Point representing Sub_cellular elem model
ASCII

DATASET UNSTRUCTURED_GRID
POINTS 36 float
-39.79764 -22.73439 64.08649 
-39.84250 22.84998 62.89207 
0.11405 -42.49445 69.34480 
0.00000 0.00000 77.83429 
-0.11405 42.49445 69.34480 
39.84250 -22.84998 62.89207 
39.79764 22.73439 64.08649 
-32.35015 -20.83038 56.42332 
-32.28708 20.76935 56.05386 
-0.01013 -35.26381 60.69937 
0.00000 0.00000 67.63893 
0.01013 35.26381 60.69937 
32.28708 -20.76935 56.05386 
32.35015 20.83038 56.42332 
-26.38312 -17.66993 47.25054 
-26.33762 17.61855 47.18590 
-0.03438 -28.78760 50.55951 
0.00000 0.00000 56.30178 
0.03438 28.78760 50.55951 
26.33762 -17.61855 47.18590 
26.38312 17.66993 47.25054 
-21.83526 -14.43745 37.07694 
-21.81796 14.42668 37.10708 
-0.02602 -25.43162 40.04208 
0.00000 0.00000 46.58009 
0.02602 25.43162 40.04208 
21.81796 -14.42668 37.10708 
21.83526 14.43745 37.07694 
-13.54678 -11.61280 28.13156 
-13.55965 11.62955 28.20440 
-0.02008 -18.10919 29.67967 
0.00000 0.00000 33.91313 
0.02008 18.10919 29.67967 
13.55965 -11.62955 28.20440 
13.54678 11.61280 28.13156 
0.00000 0.00000 -0.10000 
CELLS 233 698
2 0 1
2 0 2
2 0 3
2 1 3
2 1 4
2 2 3
2 2 5
2 3 4
2 3 5
2 3 6
2 4 6
2 5 6
2 7 8
2 7 9
2 7 10
2 8 10
2 8 11
2 9 10
2 9 12
2 10 11
2 10 12
2 10 13
2 11 13
2 12 13
2 14 15
2 14 16
2 14 17
2 15 17
2 15 18
2 16 17
2 16 19
2 17 18
2 17 19
2 17 20
2 18 20
2 19 20
2 21 22
2 21 23
2 21 24
2 22 24
2 22 25
2 23 24
2 23 26
2 24 25
2 24 26
2 24 27
2 25 27
2 26 27
2 28 29
2 28 30
2 28 31
2 29 31
2 29 32
2 30 31
2 30 33
2 31 32
2 31 33
2 31 34
2 32 34
2 33 34
2 0 1
2 0 2
2 0 3
2 0 7
2 0 8
2 0 9
2 0 10
2 1 3
2 1 4
2 1 7
2 1 8
2 1 10
2 1 11
2 2 3
2 2 5
2 2 7
2 2 9
2 2 10
2 2 12
2 3 4
2 3 5
2 3 6
2 3 7
2 3 8
2 3 9
2 3 10
2 3 11
2 3 12
2 3 13
2 4 6
2 4 8
2 4 10
2 4 11
2 4 13
2 5 6
2 5 9
2 5 10
2 5 12
2 5 13
2 6 10
2 6 11
2 6 12
2 6 13
2 7 8
2 7 9
2 7 10
2 7 14
2 7 15
2 7 16
2 7 17
2 8 10
2 8 11
2 8 14
2 8 15
2 8 17
2 8 18
2 9 10
2 9 12
2 9 14
2 9 16
2 9 17
2 9 19
2 10 11
2 10 12
2 10 13
2 10 14
2 10 15
2 10 16
2 10 17
2 10 18
2 10 19
2 10 20
2 11 13
2 11 15
2 11 17
2 11 18
2 11 20
2 12 13
2 12 16
2 12 17
2 12 19
2 12 20
2 13 17
2 13 18
2 13 19
2 13 20
2 14 15
2 14 16
2 14 17
2 14 21
2 14 22
2 14 23
2 14 24
2 15 17
2 15 18
2 15 21
2 15 22
2 15 24
2 15 25
2 16 17
2 16 19
2 16 21
2 16 23
2 16 24
2 16 26
2 17 18
2 17 19
2 17 20
2 17 21
2 17 22
2 17 23
2 17 24
2 17 25
2 17 26
2 17 27
2 18 20
2 18 22
2 18 24
2 18 25
2 18 27
2 19 20
2 19 23
2 19 24
2 19 26
2 19 27
2 20 24
2 20 25
2 20 26
2 20 27
2 21 22
2 21 23
2 21 24
2 21 28
2 21 29
2 21 30
2 21 31
2 22 24
2 22 25
2 22 28
2 22 29
2 22 31
2 22 32
2 23 24
2 23 26
2 23 28
2 23 30
2 23 31
2 23 33
2 24 25
2 24 26
2 24 27
2 24 28
2 24 29
2 24 30
2 24 31
2 24 32
2 24 33
2 24 34
2 25 27
2 25 29
2 25 31
2 25 32
2 25 34
2 26 27
2 26 30
2 26 31
2 26 33
2 26 34
2 27 31
2 27 32
2 27 33
2 27 34
1 35
CELL_TYPES 233
3
3
3
3
3
3
3
3
3
3
3
3
3
3
3
3
3
3
3
3
3
3
3
3
3
3
3
3
3
3
3
3
3
3
3
3
3
3
3
3
3
3
3
3
3
3
3
3
3
3
3
3
3
3
3
3
3
3
3
3
3
3
3
3
3
3
3
3
3
3
3
3
3
3
3
3
3
3
3
3
3
3
3
3
3
3
3
3
3
3
3
3
3
3
3
3
3
3
3
3
3
3
3
3
3
3
3
3
3
3
3
3
3
3
3
3
3
3
3
3
3
3
3
3
3
3
3
3
3
3
3
3
3
3
3
3
3
3
3
3
3
3
3
3
3
3
3
3
3
3
3
3
3
3
3
3
3
3
3
3
3
3
3
3
3
3
3
3
3
3
3
3
3
3
3
3
3
3
3
3
3
3
3
3
3
3
3
3
3
3
3
3
3
3
3
3
3
3
3
3
3
3
3
3
3
3
3
3
3
3
3
3
3
3
3
3
3
3
3
3
3
3
3
3
3
3
3
3
3
3
3
3
1
CELL_DATA 233
SCALARS Strain double 1
LOOKUP_TABLE default
-0.00635
-0.13874
0.08034
0.07186
-0.13759
0.01227
-0.13759
0.01227
0.07186
0.08034
-0.13874
-0.00635
0.00239
0.04299
0.17742
0.17560
0.04279
0.08055
0.04279
0.08055
0.17560
0.17742
0.04299
0.00239
0.01983
0.27023
0.23071
0.23159
0.26905
0.21268
0.26905
0.21268
0.23159
0.23071
0.27023
0.01983
-0.00280
0.14329
0.17945
0.17968
0.14316
0.01485
0.14316
0.01485
0.17968
0.17945
0.14329
-0.00280
-0.01225
0.30183
0.12118
0.12161
0.30321
-0.02782
0.30321
-0.02782
0.12161
0.12118
0.30183
-0.01225
-0.04993
0.05657
-0.00303
0.08542
-0.02245
0.02426
0.00149
0.00631
0.05521
-0.02428
0.04007
0.00593
0.02299
0.02098
0.05521
0.00619
0.12713
0.04085
0.00425
0.02098
0.00631
-0.00303
-0.04074
-0.03843
-0.04046
0.01954
-0.04046
-0.03843
-0.04074
0.05657
0.00425
0.04085
0.12713
0.00619
-0.04993
0.02299
0.00593
0.04007
-0.02428
0.00149
0.02426
-0.02245
0.08542
-0.00514
-0.03533
-0.04157
0.13900
0.00303
-0.04997
-0.03511
-0.04103
-0.03446
-0.00007
0.11339
-0.03725
-0.05116
-0.02808
-0.03446
-0.03187
0.20316
-0.00096
-0.03096
-0.02808
-0.04103
-0.04157
-0.05369
-0.05421
-0.05899
0.13372
-0.05899
-0.05421
-0.05369
-0.03533
-0.03096
-0.00096
0.20316
-0.03187
-0.00514
-0.05116
-0.03725
0.11339
-0.00007
-0.03511
-0.04997
0.00303
0.13900
-0.00974
-0.08644
-0.07345
0.16032
0.00185
-0.06391
-0.06329
-0.07474
-0.08490
0.00017
0.14977
-0.06529
-0.06379
-0.06849
-0.08490
-0.03193
0.10398
-0.04232
-0.03095
-0.06849
-0.07474
-0.07345
-0.04214
-0.04315
-0.00528
-0.02783
-0.00528
-0.04315
-0.04214
-0.08644
-0.03095
-0.04232
0.10398
-0.03193
-0.00974
-0.06379
-0.06529
0.14977
0.00017
-0.06329
-0.06391
0.00185
0.16032
-0.02007
-0.05547
-0.05456
0.25180
0.02584
-0.07515
-0.05926
-0.05556
-0.05424
0.02604
0.24613
-0.05985
-0.07386
0.00810
-0.05424
-0.09968
0.26885
0.03720
-0.10005
0.00810
-0.05556
-0.05456
-0.08430
-0.08565
-0.01789
0.26670
-0.01789
-0.08565
-0.08430
-0.05547
-0.10005
0.03720
0.26885
-0.09968
-0.02007
-0.07386
-0.05985
0.24613
0.02604
-0.05926
-0.07515
0.02584
0.25180
0.10000
