# vtk DataFile Version 3.0
Point representing Sub_cellular elem model
ASCII

DATASET UNSTRUCTURED_GRID
POINTS 36 float
-39.69420 -23.22520 64.01415 
-39.64494 23.20505 63.20327 
0.05181 -42.34637 68.99016 
-0.00000 0.00000 77.12970 
-0.05181 42.34637 68.99016 
39.64494 -23.20505 63.20327 
39.69420 23.22520 64.01415 
-32.62354 -20.81271 56.24993 
-32.56724 20.74362 56.04983 
-0.01934 -35.55189 60.27842 
-0.00000 0.00000 67.23291 
0.01934 35.55189 60.27842 
32.56724 -20.74362 56.04983 
32.62354 20.81271 56.24993 
-26.66326 -17.69819 47.24253 
-26.63741 17.67469 47.25559 
-0.02417 -28.90106 50.43363 
-0.00000 0.00000 56.09413 
0.02417 28.90106 50.43363 
26.63741 -17.67469 47.25559 
26.66326 17.69819 47.24253 
-22.18141 -14.54945 37.31195 
-22.17952 14.56420 37.39063 
-0.01990 -25.36905 39.98380 
-0.00000 0.00000 46.14638 
0.01990 25.36905 39.98380 
22.17952 -14.56420 37.39063 
22.18141 14.54945 37.31195 
-15.09071 -11.72545 28.35984 
-15.13065 11.77664 28.48025 
-0.01146 -19.09556 29.94690 
-0.00000 0.00000 34.75855 
0.01146 19.09556 29.94690 
15.13065 -11.77664 28.48025 
15.09071 11.72545 28.35984 
0.00000 0.00000 -0.10000 
CELLS 233 698
2 0 1
2 0 2
2 0 3
2 1 3
2 1 4
2 2 3
2 2 5
2 3 4
2 3 5
2 3 6
2 4 6
2 5 6
2 7 8
2 7 9
2 7 10
2 8 10
2 8 11
2 9 10
2 9 12
2 10 11
2 10 12
2 10 13
2 11 13
2 12 13
2 14 15
2 14 16
2 14 17
2 15 17
2 15 18
2 16 17
2 16 19
2 17 18
2 17 19
2 17 20
2 18 20
2 19 20
2 21 22
2 21 23
2 21 24
2 22 24
2 22 25
2 23 24
2 23 26
2 24 25
2 24 26
2 24 27
2 25 27
2 26 27
2 28 29
2 28 30
2 28 31
2 29 31
2 29 32
2 30 31
2 30 33
2 31 32
2 31 33
2 31 34
2 32 34
2 33 34
2 0 1
2 0 2
2 0 3
2 0 7
2 0 8
2 0 9
2 0 10
2 1 3
2 1 4
2 1 7
2 1 8
2 1 10
2 1 11
2 2 3
2 2 5
2 2 7
2 2 9
2 2 10
2 2 12
2 3 4
2 3 5
2 3 6
2 3 7
2 3 8
2 3 9
2 3 10
2 3 11
2 3 12
2 3 13
2 4 6
2 4 8
2 4 10
2 4 11
2 4 13
2 5 6
2 5 9
2 5 10
2 5 12
2 5 13
2 6 10
2 6 11
2 6 12
2 6 13
2 7 8
2 7 9
2 7 10
2 7 14
2 7 15
2 7 16
2 7 17
2 8 10
2 8 11
2 8 14
2 8 15
2 8 17
2 8 18
2 9 10
2 9 12
2 9 14
2 9 16
2 9 17
2 9 19
2 10 11
2 10 12
2 10 13
2 10 14
2 10 15
2 10 16
2 10 17
2 10 18
2 10 19
2 10 20
2 11 13
2 11 15
2 11 17
2 11 18
2 11 20
2 12 13
2 12 16
2 12 17
2 12 19
2 12 20
2 13 17
2 13 18
2 13 19
2 13 20
2 14 15
2 14 16
2 14 17
2 14 21
2 14 22
2 14 23
2 14 24
2 15 17
2 15 18
2 15 21
2 15 22
2 15 24
2 15 25
2 16 17
2 16 19
2 16 21
2 16 23
2 16 24
2 16 26
2 17 18
2 17 19
2 17 20
2 17 21
2 17 22
2 17 23
2 17 24
2 17 25
2 17 26
2 17 27
2 18 20
2 18 22
2 18 24
2 18 25
2 18 27
2 19 20
2 19 23
2 19 24
2 19 26
2 19 27
2 20 24
2 20 25
2 20 26
2 20 27
2 21 22
2 21 23
2 21 24
2 21 28
2 21 29
2 21 30
2 21 31
2 22 24
2 22 25
2 22 28
2 22 29
2 22 31
2 22 32
2 23 24
2 23 26
2 23 28
2 23 30
2 23 31
2 23 33
2 24 25
2 24 26
2 24 27
2 24 28
2 24 29
2 24 30
2 24 31
2 24 32
2 24 33
2 24 34
2 25 27
2 25 29
2 25 31
2 25 32
2 25 34
2 26 27
2 26 30
2 26 31
2 26 33
2 26 34
2 27 31
2 27 32
2 27 33
2 27 34
1 35
CELL_TYPES 233
3
3
3
3
3
3
3
3
3
3
3
3
3
3
3
3
3
3
3
3
3
3
3
3
3
3
3
3
3
3
3
3
3
3
3
3
3
3
3
3
3
3
3
3
3
3
3
3
3
3
3
3
3
3
3
3
3
3
3
3
3
3
3
3
3
3
3
3
3
3
3
3
3
3
3
3
3
3
3
3
3
3
3
3
3
3
3
3
3
3
3
3
3
3
3
3
3
3
3
3
3
3
3
3
3
3
3
3
3
3
3
3
3
3
3
3
3
3
3
3
3
3
3
3
3
3
3
3
3
3
3
3
3
3
3
3
3
3
3
3
3
3
3
3
3
3
3
3
3
3
3
3
3
3
3
3
3
3
3
3
3
3
3
3
3
3
3
3
3
3
3
3
3
3
3
3
3
3
3
3
3
3
3
3
3
3
3
3
3
3
3
3
3
3
3
3
3
3
3
3
3
3
3
3
3
3
3
3
3
3
3
3
3
3
3
3
3
3
3
3
3
3
3
3
3
3
3
3
3
3
3
3
1
CELL_DATA 233
SCALARS Strain double 1
LOOKUP_TABLE default
-0.03719
-0.13459
0.08628
0.09033
-0.13517
0.02430
-0.13517
0.02430
0.09033
0.08628
-0.13459
-0.03719
-0.00731
0.01833
0.17245
0.17169
0.01933
0.06349
0.01933
0.06349
0.17169
0.17245
0.01833
-0.00731
0.01526
0.22780
0.21111
0.20977
0.22899
0.20400
0.22899
0.20400
0.20977
0.21111
0.22780
0.01526
-0.01160
0.12627
0.16466
0.16389
0.12713
0.01876
0.12713
0.01876
0.16389
0.16466
0.12627
-0.01160
0.00976
0.20730
0.06197
0.06312
0.20896
-0.04318
0.20896
-0.04318
0.06312
0.06197
0.20730
0.00976
-0.03249
0.04576
-0.00361
0.07748
-0.01423
0.02089
0.00435
0.00010
0.04506
-0.01719
0.03597
0.00459
0.01921
0.01597
0.04506
0.00722
0.10483
0.03728
0.00653
0.01597
0.00010
-0.00361
-0.04208
-0.04162
-0.03711
-0.01032
-0.03711
-0.04162
-0.04208
0.04576
0.00653
0.03728
0.10483
0.00722
-0.03249
0.01921
0.00459
0.03597
-0.01719
0.00435
0.02089
-0.01423
0.07748
-0.00620
-0.02627
-0.03804
0.12409
0.00247
-0.04170
-0.02957
-0.03867
-0.02531
0.00001
0.10417
-0.03170
-0.04240
-0.02036
-0.02531
-0.02672
0.18808
0.00636
-0.02624
-0.02036
-0.03867
-0.03804
-0.05376
-0.05467
-0.06023
0.11388
-0.06023
-0.05467
-0.05376
-0.02627
-0.02624
0.00636
0.18808
-0.02672
-0.00620
-0.04240
-0.03170
0.10417
0.00001
-0.02957
-0.04170
0.00247
0.12409
-0.00738
-0.07738
-0.06824
0.13409
0.00363
-0.05554
-0.05561
-0.06927
-0.07649
0.00324
0.12634
-0.05662
-0.05480
-0.06546
-0.07649
-0.02851
0.10306
-0.03718
-0.02875
-0.06546
-0.06927
-0.06824
-0.04139
-0.04257
-0.00966
-0.00523
-0.00966
-0.04257
-0.04139
-0.07738
-0.02875
-0.03718
0.10306
-0.02851
-0.00738
-0.05480
-0.05662
0.12634
0.00324
-0.05561
-0.05554
0.00363
0.13409
-0.01160
-0.04767
-0.05078
0.17642
0.02216
-0.05638
-0.04917
-0.05141
-0.04694
0.02351
0.16985
-0.04867
-0.05475
0.00227
-0.04694
-0.07151
0.18362
0.02696
-0.07301
0.00227
-0.05141
-0.05078
-0.06855
-0.06982
-0.00715
0.13878
-0.00715
-0.06982
-0.06855
-0.04767
-0.07301
0.02696
0.18362
-0.07151
-0.01160
-0.05475
-0.04867
0.16985
0.02351
-0.04917
-0.05638
0.02216
0.17642
0.10000
