# vtk DataFile Version 3.0
Point representing Sub_cellular elem model
ASCII

DATASET UNSTRUCTURED_GRID
POINTS 36 float
-39.25073 -23.66640 63.40640 
-39.23490 23.65806 63.15260 
0.01572 -41.51978 67.14310 
-0.00000 -0.00000 77.34085 
-0.01572 41.51978 67.14310 
39.23490 -23.65806 63.15260 
39.25073 23.66640 63.40640 
-33.33168 -20.86609 55.37472 
-33.31637 20.84062 55.32922 
-0.00903 -35.58695 58.66275 
-0.00000 -0.00000 67.35302 
0.00903 35.58695 58.66275 
33.31637 -20.84062 55.32922 
33.33168 20.86609 55.37472 
-27.90486 -17.77506 46.87914 
-27.90149 17.76958 46.91216 
-0.00831 -29.71901 49.68213 
-0.00000 -0.00000 56.89037 
0.00831 29.71901 49.68213 
27.90149 -17.76958 46.91216 
27.90486 17.77506 46.87914 
-23.13788 -14.64606 37.98116 
-23.14543 14.65742 38.04405 
-0.00657 -25.22203 40.32662 
-0.00000 0.00000 47.02104 
0.00657 25.22203 40.32662 
23.14543 -14.65742 38.04405 
23.13788 14.64606 37.98116 
-17.20808 -11.68194 29.56426 
-17.24105 11.71894 29.64989 
-0.00048 -19.53139 31.22543 
-0.00000 0.00000 36.47086 
0.00048 19.53139 31.22543 
17.24105 -11.71894 29.64989 
17.20808 11.68194 29.56426 
0.00000 0.00000 -0.10000 
CELLS 233 698
2 0 1
2 0 2
2 0 3
2 1 3
2 1 4
2 2 3
2 2 5
2 3 4
2 3 5
2 3 6
2 4 6
2 5 6
2 7 8
2 7 9
2 7 10
2 8 10
2 8 11
2 9 10
2 9 12
2 10 11
2 10 12
2 10 13
2 11 13
2 12 13
2 14 15
2 14 16
2 14 17
2 15 17
2 15 18
2 16 17
2 16 19
2 17 18
2 17 19
2 17 20
2 18 20
2 19 20
2 21 22
2 21 23
2 21 24
2 22 24
2 22 25
2 23 24
2 23 26
2 24 25
2 24 26
2 24 27
2 25 27
2 26 27
2 28 29
2 28 30
2 28 31
2 29 31
2 29 32
2 30 31
2 30 33
2 31 32
2 31 33
2 31 34
2 32 34
2 33 34
2 0 1
2 0 2
2 0 3
2 0 7
2 0 8
2 0 9
2 0 10
2 1 3
2 1 4
2 1 7
2 1 8
2 1 10
2 1 11
2 2 3
2 2 5
2 2 7
2 2 9
2 2 10
2 2 12
2 3 4
2 3 5
2 3 6
2 3 7
2 3 8
2 3 9
2 3 10
2 3 11
2 3 12
2 3 13
2 4 6
2 4 8
2 4 10
2 4 11
2 4 13
2 5 6
2 5 9
2 5 10
2 5 12
2 5 13
2 6 10
2 6 11
2 6 12
2 6 13
2 7 8
2 7 9
2 7 10
2 7 14
2 7 15
2 7 16
2 7 17
2 8 10
2 8 11
2 8 14
2 8 15
2 8 17
2 8 18
2 9 10
2 9 12
2 9 14
2 9 16
2 9 17
2 9 19
2 10 11
2 10 12
2 10 13
2 10 14
2 10 15
2 10 16
2 10 17
2 10 18
2 10 19
2 10 20
2 11 13
2 11 15
2 11 17
2 11 18
2 11 20
2 12 13
2 12 16
2 12 17
2 12 19
2 12 20
2 13 17
2 13 18
2 13 19
2 13 20
2 14 15
2 14 16
2 14 17
2 14 21
2 14 22
2 14 23
2 14 24
2 15 17
2 15 18
2 15 21
2 15 22
2 15 24
2 15 25
2 16 17
2 16 19
2 16 21
2 16 23
2 16 24
2 16 26
2 17 18
2 17 19
2 17 20
2 17 21
2 17 22
2 17 23
2 17 24
2 17 25
2 17 26
2 17 27
2 18 20
2 18 22
2 18 24
2 18 25
2 18 27
2 19 20
2 19 23
2 19 24
2 19 26
2 19 27
2 20 24
2 20 25
2 20 26
2 20 27
2 21 22
2 21 23
2 21 24
2 21 28
2 21 29
2 21 30
2 21 31
2 22 24
2 22 25
2 22 28
2 22 29
2 22 31
2 22 32
2 23 24
2 23 26
2 23 28
2 23 30
2 23 31
2 23 33
2 24 25
2 24 26
2 24 27
2 24 28
2 24 29
2 24 30
2 24 31
2 24 32
2 24 33
2 24 34
2 25 27
2 25 29
2 25 31
2 25 32
2 25 34
2 26 27
2 26 30
2 26 31
2 26 33
2 26 34
2 27 31
2 27 32
2 27 33
2 27 34
1 35
CELL_TYPES 233
3
3
3
3
3
3
3
3
3
3
3
3
3
3
3
3
3
3
3
3
3
3
3
3
3
3
3
3
3
3
3
3
3
3
3
3
3
3
3
3
3
3
3
3
3
3
3
3
3
3
3
3
3
3
3
3
3
3
3
3
3
3
3
3
3
3
3
3
3
3
3
3
3
3
3
3
3
3
3
3
3
3
3
3
3
3
3
3
3
3
3
3
3
3
3
3
3
3
3
3
3
3
3
3
3
3
3
3
3
3
3
3
3
3
3
3
3
3
3
3
3
3
3
3
3
3
3
3
3
3
3
3
3
3
3
3
3
3
3
3
3
3
3
3
3
3
3
3
3
3
3
3
3
3
3
3
3
3
3
3
3
3
3
3
3
3
3
3
3
3
3
3
3
3
3
3
3
3
3
3
3
3
3
3
3
3
3
3
3
3
3
3
3
3
3
3
3
3
3
3
3
3
3
3
3
3
3
3
3
3
3
3
3
3
3
3
3
3
3
3
3
3
3
3
3
3
3
3
3
3
3
3
1
CELL_DATA 233
SCALARS Strain double 1
LOOKUP_TABLE default
-0.01609
-0.06505
0.03553
0.03677
-0.06541
0.01090
-0.06541
0.01090
0.03677
0.03553
-0.06505
-0.01609
-0.00311
0.00846
0.06675
0.06643
0.00892
0.02599
0.00892
0.02599
0.06643
0.06675
0.00846
-0.00311
0.00726
0.08488
0.07872
0.07825
0.08528
0.07559
0.08528
0.07559
0.07825
0.07872
0.08488
0.00726
-0.00516
0.05155
0.06510
0.06481
0.05190
0.00896
0.05190
0.00896
0.06481
0.06510
0.05155
-0.00516
0.00541
0.07324
0.02422
0.02510
0.07370
-0.01741
0.07370
-0.01741
0.02510
0.02422
0.07324
0.00541
-0.01399
0.02008
-0.00191
0.03626
-0.00612
0.01043
0.00220
-0.00071
0.01969
-0.00698
0.02065
0.00230
0.00985
0.00730
0.01969
0.00228
0.03497
0.01617
0.00198
0.00730
-0.00071
-0.00191
-0.01871
-0.01873
-0.01637
-0.00122
-0.01637
-0.01873
-0.01871
0.02008
0.00198
0.01617
0.03497
0.00228
-0.01399
0.00985
0.00230
0.02065
-0.00698
0.00220
0.01043
-0.00612
0.03626
-0.00262
-0.01084
-0.01693
0.05441
0.00115
-0.01757
-0.01312
-0.01722
-0.01039
0.00054
0.04689
-0.01374
-0.01756
-0.00935
-0.01039
-0.01233
0.07277
0.00168
-0.01224
-0.00935
-0.01722
-0.01693
-0.02430
-0.02486
-0.02798
0.04627
-0.02798
-0.02486
-0.02430
-0.01084
-0.01224
0.00168
0.07277
-0.01233
-0.00262
-0.01756
-0.01374
0.04689
0.00054
-0.01312
-0.01757
0.00115
0.05441
-0.00256
-0.03294
-0.03000
0.05683
0.00126
-0.02426
-0.02422
-0.03042
-0.03258
0.00155
0.05332
-0.02439
-0.02367
-0.02959
-0.03258
-0.01189
0.03801
-0.01673
-0.01227
-0.02959
-0.03042
-0.03000
-0.01854
-0.01929
-0.00563
-0.01307
-0.00563
-0.01929
-0.01854
-0.03294
-0.01227
-0.01673
0.03801
-0.01189
-0.00256
-0.02367
-0.02439
0.05332
0.00155
-0.02422
-0.02426
0.00126
0.05683
-0.00516
-0.01940
-0.02099
0.07142
0.00869
-0.02490
-0.02151
-0.02125
-0.01908
0.00972
0.06752
-0.02094
-0.02398
0.00183
-0.01908
-0.03282
0.07338
0.01164
-0.03383
0.00183
-0.02125
-0.02099
-0.03120
-0.03185
-0.00406
0.05502
-0.00406
-0.03185
-0.03120
-0.01940
-0.03383
0.01164
0.07338
-0.03282
-0.00516
-0.02398
-0.02094
0.06752
0.00972
-0.02151
-0.02490
0.00869
0.07142
0.10000
