# vtk DataFile Version 3.0
Point representing Sub_cellular elem model
ASCII

DATASET UNSTRUCTURED_GRID
POINTS 36 float
-39.75300 -23.15416 64.08809 
-39.69294 23.13232 63.13242 
0.06186 -42.46444 69.37105 
-0.00000 0.00000 77.11345 
-0.06186 42.46444 69.37105 
39.69294 -23.13232 63.13242 
39.75300 23.15416 64.08809 
-32.50055 -20.80656 56.39602 
-32.43328 20.72758 56.15125 
-0.02078 -35.54346 60.56644 
-0.00000 0.00000 67.24442 
0.02078 35.54346 60.56644 
32.43328 -20.72758 56.15125 
32.50055 20.80656 56.39602 
-26.45737 -17.68473 47.30905 
-26.42532 17.65612 47.31040 
-0.02771 -28.76684 50.55189 
-0.00000 0.00000 55.99041 
0.02771 28.76684 50.55189 
26.42532 -17.65612 47.31040 
26.45737 17.68473 47.30905 
-22.02044 -14.53472 37.21240 
-22.01492 14.54870 37.28799 
-0.02276 -25.38565 39.92305 
-0.00000 0.00000 46.00168 
0.02276 25.38565 39.92305 
22.01492 -14.54870 37.28799 
22.02044 14.53472 37.21240 
-14.74645 -11.73055 28.16130 
-14.78406 11.78133 28.28176 
-0.01447 -19.01566 29.72082 
-0.00000 0.00000 34.46560 
0.01447 19.01566 29.72082 
14.78406 -11.78133 28.28176 
14.74645 11.73055 28.16130 
0.00000 0.00000 -0.10000 
CELLS 233 698
2 0 1
2 0 2
2 0 3
2 1 3
2 1 4
2 2 3
2 2 5
2 3 4
2 3 5
2 3 6
2 4 6
2 5 6
2 7 8
2 7 9
2 7 10
2 8 10
2 8 11
2 9 10
2 9 12
2 10 11
2 10 12
2 10 13
2 11 13
2 12 13
2 14 15
2 14 16
2 14 17
2 15 17
2 15 18
2 16 17
2 16 19
2 17 18
2 17 19
2 17 20
2 18 20
2 19 20
2 21 22
2 21 23
2 21 24
2 22 24
2 22 25
2 23 24
2 23 26
2 24 25
2 24 26
2 24 27
2 25 27
2 26 27
2 28 29
2 28 30
2 28 31
2 29 31
2 29 32
2 30 31
2 30 33
2 31 32
2 31 33
2 31 34
2 32 34
2 33 34
2 0 1
2 0 2
2 0 3
2 0 7
2 0 8
2 0 9
2 0 10
2 1 3
2 1 4
2 1 7
2 1 8
2 1 10
2 1 11
2 2 3
2 2 5
2 2 7
2 2 9
2 2 10
2 2 12
2 3 4
2 3 5
2 3 6
2 3 7
2 3 8
2 3 9
2 3 10
2 3 11
2 3 12
2 3 13
2 4 6
2 4 8
2 4 10
2 4 11
2 4 13
2 5 6
2 5 9
2 5 10
2 5 12
2 5 13
2 6 10
2 6 11
2 6 12
2 6 13
2 7 8
2 7 9
2 7 10
2 7 14
2 7 15
2 7 16
2 7 17
2 8 10
2 8 11
2 8 14
2 8 15
2 8 17
2 8 18
2 9 10
2 9 12
2 9 14
2 9 16
2 9 17
2 9 19
2 10 11
2 10 12
2 10 13
2 10 14
2 10 15
2 10 16
2 10 17
2 10 18
2 10 19
2 10 20
2 11 13
2 11 15
2 11 17
2 11 18
2 11 20
2 12 13
2 12 16
2 12 17
2 12 19
2 12 20
2 13 17
2 13 18
2 13 19
2 13 20
2 14 15
2 14 16
2 14 17
2 14 21
2 14 22
2 14 23
2 14 24
2 15 17
2 15 18
2 15 21
2 15 22
2 15 24
2 15 25
2 16 17
2 16 19
2 16 21
2 16 23
2 16 24
2 16 26
2 17 18
2 17 19
2 17 20
2 17 21
2 17 22
2 17 23
2 17 24
2 17 25
2 17 26
2 17 27
2 18 20
2 18 22
2 18 24
2 18 25
2 18 27
2 19 20
2 19 23
2 19 24
2 19 26
2 19 27
2 20 24
2 20 25
2 20 26
2 20 27
2 21 22
2 21 23
2 21 24
2 21 28
2 21 29
2 21 30
2 21 31
2 22 24
2 22 25
2 22 28
2 22 29
2 22 31
2 22 32
2 23 24
2 23 26
2 23 28
2 23 30
2 23 31
2 23 33
2 24 25
2 24 26
2 24 27
2 24 28
2 24 29
2 24 30
2 24 31
2 24 32
2 24 33
2 24 34
2 25 27
2 25 29
2 25 31
2 25 32
2 25 34
2 26 27
2 26 30
2 26 31
2 26 33
2 26 34
2 27 31
2 27 32
2 27 33
2 27 34
1 35
CELL_TYPES 233
3
3
3
3
3
3
3
3
3
3
3
3
3
3
3
3
3
3
3
3
3
3
3
3
3
3
3
3
3
3
3
3
3
3
3
3
3
3
3
3
3
3
3
3
3
3
3
3
3
3
3
3
3
3
3
3
3
3
3
3
3
3
3
3
3
3
3
3
3
3
3
3
3
3
3
3
3
3
3
3
3
3
3
3
3
3
3
3
3
3
3
3
3
3
3
3
3
3
3
3
3
3
3
3
3
3
3
3
3
3
3
3
3
3
3
3
3
3
3
3
3
3
3
3
3
3
3
3
3
3
3
3
3
3
3
3
3
3
3
3
3
3
3
3
3
3
3
3
3
3
3
3
3
3
3
3
3
3
3
3
3
3
3
3
3
3
3
3
3
3
3
3
3
3
3
3
3
3
3
3
3
3
3
3
3
3
3
3
3
3
3
3
3
3
3
3
3
3
3
3
3
3
3
3
3
3
3
3
3
3
3
3
3
3
3
3
3
3
3
3
3
3
3
3
3
3
3
3
3
3
3
3
1
CELL_DATA 233
SCALARS Strain double 1
LOOKUP_TABLE default
-0.04053
-0.14440
0.09494
0.09973
-0.14499
0.02608
-0.14499
0.02608
0.09973
0.09494
-0.14440
-0.04053
-0.00794
0.01979
0.19188
0.19104
0.02088
0.06997
0.02088
0.06997
0.19104
0.19188
0.01979
-0.00794
0.01643
0.25538
0.23658
0.23503
0.25679
0.22882
0.25679
0.22882
0.23503
0.23658
0.25538
0.01643
-0.01263
0.13919
0.18261
0.18172
0.14017
0.02014
0.14017
0.02014
0.18172
0.18261
0.13919
-0.01263
0.01018
0.23496
0.06883
0.06991
0.23692
-0.04773
0.23692
-0.04773
0.06991
0.06883
0.23496
0.01018
-0.03542
0.04997
-0.00383
0.08294
-0.01551
0.02223
0.00458
0.00053
0.04925
-0.01900
0.03548
0.00486
0.02025
0.01698
0.04925
0.00842
0.11995
0.04058
0.00766
0.01698
0.00053
-0.00383
-0.04581
-0.04517
-0.04046
-0.01310
-0.04046
-0.04517
-0.04581
0.04997
0.00766
0.04058
0.11995
0.00842
-0.03542
0.02025
0.00486
0.03548
-0.01900
0.00458
0.02223
-0.01551
0.08294
-0.00673
-0.02890
-0.04138
0.13507
0.00273
-0.04582
-0.03221
-0.04206
-0.02786
-0.00024
0.11216
-0.03474
-0.04678
-0.02199
-0.02786
-0.02875
0.20919
0.00747
-0.02815
-0.02199
-0.04206
-0.04138
-0.05830
-0.05922
-0.06500
0.12540
-0.06500
-0.05922
-0.05830
-0.02890
-0.02815
0.00747
0.20919
-0.02875
-0.00673
-0.04678
-0.03474
0.11216
-0.00024
-0.03221
-0.04582
0.00273
0.13507
-0.00828
-0.08476
-0.07435
0.14695
0.00412
-0.06059
-0.06065
-0.07551
-0.08374
0.00345
0.13822
-0.06190
-0.05991
-0.07098
-0.08374
-0.03126
0.11536
-0.04024
-0.03138
-0.07098
-0.07551
-0.07435
-0.04489
-0.04611
-0.00996
-0.00113
-0.00996
-0.04611
-0.04489
-0.08476
-0.03138
-0.04024
0.11536
-0.03126
-0.00828
-0.05991
-0.06190
0.13822
0.00345
-0.06065
-0.06059
0.00412
0.14695
-0.01263
-0.05260
-0.05586
0.19457
0.02457
-0.06135
-0.05355
-0.05656
-0.05178
0.02586
0.18768
-0.05315
-0.05964
0.00213
-0.05178
-0.07729
0.20276
0.02951
-0.07878
0.00213
-0.05656
-0.05586
-0.07419
-0.07555
-0.00747
0.15361
-0.00747
-0.07555
-0.07419
-0.05260
-0.07878
0.02951
0.20276
-0.07729
-0.01263
-0.05964
-0.05315
0.18768
0.02586
-0.05355
-0.06135
0.02457
0.19457
0.10000
