# vtk DataFile Version 3.0
Point representing Sub_cellular elem model
ASCII

DATASET UNSTRUCTURED_GRID
POINTS 36 float
-39.97354 -22.45164 64.48872 
-39.96188 22.58590 62.41058 
0.19243 -42.88366 70.80889 
0.00000 0.00000 77.68773 
-0.19243 42.88366 70.80889 
39.96188 -22.58590 62.41058 
39.97354 22.45164 64.48872 
-31.92795 -20.82312 57.02940 
-31.80723 20.72284 56.36873 
-0.00968 -35.18747 61.68728 
0.00000 0.00000 67.62348 
0.00968 35.18747 61.68728 
31.80723 -20.72284 56.36873 
31.92795 20.82312 57.02940 
-25.74561 -17.63786 47.51381 
-25.66543 17.55948 47.36330 
-0.05313 -28.37757 50.85763 
0.00000 0.00000 55.93706 
0.05313 28.37757 50.85763 
25.66543 -17.55948 47.36330 
25.74561 17.63786 47.51381 
-21.35970 -14.40427 36.81399 
-21.32251 14.38761 36.82044 
-0.04041 -25.44922 39.71936 
0.00000 0.00000 45.97500 
0.04041 25.44922 39.71936 
21.32251 -14.38761 36.82044 
21.35970 14.40427 36.81399 
-12.74033 -11.63194 27.47247 
-12.73220 11.64589 27.54255 
-0.03286 -17.89499 28.87373 
0.00000 0.00000 32.97833 
0.03286 17.89499 28.87373 
12.73220 -11.64589 27.54255 
12.74033 11.63194 27.47247 
0.00000 0.00000 -0.10000 
CELLS 233 698
2 0 1
2 0 2
2 0 3
2 1 3
2 1 4
2 2 3
2 2 5
2 3 4
2 3 5
2 3 6
2 4 6
2 5 6
2 7 8
2 7 9
2 7 10
2 8 10
2 8 11
2 9 10
2 9 12
2 10 11
2 10 12
2 10 13
2 11 13
2 12 13
2 14 15
2 14 16
2 14 17
2 15 17
2 15 18
2 16 17
2 16 19
2 17 18
2 17 19
2 17 20
2 18 20
2 19 20
2 21 22
2 21 23
2 21 24
2 22 24
2 22 25
2 23 24
2 23 26
2 24 25
2 24 26
2 24 27
2 25 27
2 26 27
2 28 29
2 28 30
2 28 31
2 29 31
2 29 32
2 30 31
2 30 33
2 31 32
2 31 33
2 31 34
2 32 34
2 33 34
2 0 1
2 0 2
2 0 3
2 0 7
2 0 8
2 0 9
2 0 10
2 1 3
2 1 4
2 1 7
2 1 8
2 1 10
2 1 11
2 2 3
2 2 5
2 2 7
2 2 9
2 2 10
2 2 12
2 3 4
2 3 5
2 3 6
2 3 7
2 3 8
2 3 9
2 3 10
2 3 11
2 3 12
2 3 13
2 4 6
2 4 8
2 4 10
2 4 11
2 4 13
2 5 6
2 5 9
2 5 10
2 5 12
2 5 13
2 6 10
2 6 11
2 6 12
2 6 13
2 7 8
2 7 9
2 7 10
2 7 14
2 7 15
2 7 16
2 7 17
2 8 10
2 8 11
2 8 14
2 8 15
2 8 17
2 8 18
2 9 10
2 9 12
2 9 14
2 9 16
2 9 17
2 9 19
2 10 11
2 10 12
2 10 13
2 10 14
2 10 15
2 10 16
2 10 17
2 10 18
2 10 19
2 10 20
2 11 13
2 11 15
2 11 17
2 11 18
2 11 20
2 12 13
2 12 16
2 12 17
2 12 19
2 12 20
2 13 17
2 13 18
2 13 19
2 13 20
2 14 15
2 14 16
2 14 17
2 14 21
2 14 22
2 14 23
2 14 24
2 15 17
2 15 18
2 15 21
2 15 22
2 15 24
2 15 25
2 16 17
2 16 19
2 16 21
2 16 23
2 16 24
2 16 26
2 17 18
2 17 19
2 17 20
2 17 21
2 17 22
2 17 23
2 17 24
2 17 25
2 17 26
2 17 27
2 18 20
2 18 22
2 18 24
2 18 25
2 18 27
2 19 20
2 19 23
2 19 24
2 19 26
2 19 27
2 20 24
2 20 25
2 20 26
2 20 27
2 21 22
2 21 23
2 21 24
2 21 28
2 21 29
2 21 30
2 21 31
2 22 24
2 22 25
2 22 28
2 22 29
2 22 31
2 22 32
2 23 24
2 23 26
2 23 28
2 23 30
2 23 31
2 23 33
2 24 25
2 24 26
2 24 27
2 24 28
2 24 29
2 24 30
2 24 31
2 24 32
2 24 33
2 24 34
2 25 27
2 25 29
2 25 31
2 25 32
2 25 34
2 26 27
2 26 30
2 26 31
2 26 33
2 26 34
2 27 31
2 27 32
2 27 33
2 27 34
1 35
CELL_TYPES 233
3
3
3
3
3
3
3
3
3
3
3
3
3
3
3
3
3
3
3
3
3
3
3
3
3
3
3
3
3
3
3
3
3
3
3
3
3
3
3
3
3
3
3
3
3
3
3
3
3
3
3
3
3
3
3
3
3
3
3
3
3
3
3
3
3
3
3
3
3
3
3
3
3
3
3
3
3
3
3
3
3
3
3
3
3
3
3
3
3
3
3
3
3
3
3
3
3
3
3
3
3
3
3
3
3
3
3
3
3
3
3
3
3
3
3
3
3
3
3
3
3
3
3
3
3
3
3
3
3
3
3
3
3
3
3
3
3
3
3
3
3
3
3
3
3
3
3
3
3
3
3
3
3
3
3
3
3
3
3
3
3
3
3
3
3
3
3
3
3
3
3
3
3
3
3
3
3
3
3
3
3
3
3
3
3
3
3
3
3
3
3
3
3
3
3
3
3
3
3
3
3
3
3
3
3
3
3
3
3
3
3
3
3
3
3
3
3
3
3
3
3
3
3
3
3
3
3
3
3
3
3
3
1
CELL_DATA 233
SCALARS Strain double 1
LOOKUP_TABLE default
-0.01940
-0.17269
0.11582
0.10802
-0.17123
0.01873
-0.17123
0.01873
0.10802
0.11582
-0.17269
-0.01940
0.00081
0.04924
0.25037
0.24658
0.04960
0.11215
0.04960
0.11215
0.24658
0.25037
0.04924
0.00081
0.02488
0.37382
0.31726
0.31711
0.37356
0.29294
0.37356
0.29294
0.31711
0.31726
0.37382
0.02488
-0.00530
0.18563
0.23910
0.23875
0.18629
0.01628
0.18629
0.01628
0.23875
0.23910
0.18563
-0.00530
-0.01074
0.40461
0.13808
0.13777
0.40856
-0.04019
0.40856
-0.04019
0.13777
0.13808
0.40461
-0.01074
-0.06065
0.07213
-0.00599
0.10916
-0.02654
0.02883
0.00113
0.00796
0.07042
-0.03114
0.03186
0.00644
0.02588
0.02329
0.07042
0.01154
0.19363
0.05244
0.00883
0.02329
0.00796
-0.00599
-0.05547
-0.05149
-0.05397
0.00642
-0.05397
-0.05149
-0.05547
0.07213
0.00883
0.05244
0.19363
0.01154
-0.06065
0.02588
0.00644
0.03186
-0.03114
0.00113
0.02883
-0.02654
0.10916
-0.00633
-0.04512
-0.05388
0.17861
0.00493
-0.06289
-0.04371
-0.05311
-0.04396
-0.00109
0.13501
-0.04795
-0.06589
-0.03499
-0.04396
-0.03790
0.27929
0.00234
-0.03629
-0.03499
-0.05311
-0.05388
-0.06898
-0.06926
-0.07340
0.16864
-0.07340
-0.06926
-0.06898
-0.04512
-0.03629
0.00234
0.27929
-0.03790
-0.00633
-0.06589
-0.04795
0.13501
-0.00109
-0.04371
-0.06289
0.00493
0.17861
-0.01229
-0.10999
-0.09292
0.20074
0.00429
-0.07816
-0.07848
-0.09480
-0.10770
0.00080
0.18352
-0.08194
-0.07878
-0.08519
-0.10770
-0.04125
0.15167
-0.05111
-0.03942
-0.08519
-0.09480
-0.09292
-0.05375
-0.05481
-0.00554
-0.00379
-0.00554
-0.05481
-0.05375
-0.10999
-0.03942
-0.05111
0.15167
-0.04125
-0.01229
-0.07878
-0.08194
0.18352
0.00080
-0.07848
-0.07816
0.00429
0.20074
-0.02253
-0.07149
-0.07172
0.30095
0.03344
-0.08716
-0.07070
-0.07307
-0.06975
0.03286
0.29380
-0.07208
-0.08593
0.00611
-0.06975
-0.11149
0.32172
0.04383
-0.11170
0.00611
-0.07307
-0.07172
-0.09743
-0.09917
-0.01860
0.29967
-0.01860
-0.09917
-0.09743
-0.07149
-0.11170
0.04383
0.32172
-0.11149
-0.02253
-0.08593
-0.07208
0.29380
0.03286
-0.07070
-0.08716
0.03344
0.30095
0.10000
