# vtk DataFile Version 3.0
Point representing Sub_cellular elem model
ASCII

DATASET UNSTRUCTURED_GRID
POINTS 36 float
-39.87662 -22.98386 64.23209 
-39.77298 22.95852 62.78472 
0.09867 -42.71623 70.46146 
-0.00000 0.00000 77.08579 
-0.09867 42.71623 70.46146 
39.77298 -22.95852 62.78472 
39.87662 22.98386 64.23209 
-32.18798 -20.79906 56.76303 
-32.08288 20.68884 56.36268 
-0.02378 -35.52339 61.31671 
-0.00000 0.00000 67.31042 
0.02378 35.52339 61.31671 
32.08288 -20.68884 56.36268 
32.18798 20.79906 56.76303 
-25.94916 -17.65323 47.48469 
-25.89638 17.60700 47.44038 
-0.03882 -28.44143 50.84274 
-0.00000 0.00000 55.77099 
0.03882 28.44143 50.84274 
25.89638 -17.60700 47.44038 
25.94916 17.65323 47.48469 
-21.62105 -14.50033 36.98199 
-21.60308 14.50999 37.04186 
-0.03131 -25.41829 39.76951 
-0.00000 0.00000 45.64764 
0.03131 25.41829 39.76951 
21.60308 -14.50999 37.04186 
21.62105 14.50033 36.98199 
-13.90596 -11.74077 27.67471 
-13.93266 11.78706 27.78895 
-0.02393 -18.80933 29.15054 
-0.00000 0.00000 33.73642 
0.02393 18.80933 29.15054 
13.93266 -11.78706 27.78895 
13.90596 11.74077 27.67471 
0.00000 0.00000 -0.10000 
CELLS 233 698
2 0 1
2 0 2
2 0 3
2 1 3
2 1 4
2 2 3
2 2 5
2 3 4
2 3 5
2 3 6
2 4 6
2 5 6
2 7 8
2 7 9
2 7 10
2 8 10
2 8 11
2 9 10
2 9 12
2 10 11
2 10 12
2 10 13
2 11 13
2 12 13
2 14 15
2 14 16
2 14 17
2 15 17
2 15 18
2 16 17
2 16 19
2 17 18
2 17 19
2 17 20
2 18 20
2 19 20
2 21 22
2 21 23
2 21 24
2 22 24
2 22 25
2 23 24
2 23 26
2 24 25
2 24 26
2 24 27
2 25 27
2 26 27
2 28 29
2 28 30
2 28 31
2 29 31
2 29 32
2 30 31
2 30 33
2 31 32
2 31 33
2 31 34
2 32 34
2 33 34
2 0 1
2 0 2
2 0 3
2 0 7
2 0 8
2 0 9
2 0 10
2 1 3
2 1 4
2 1 7
2 1 8
2 1 10
2 1 11
2 2 3
2 2 5
2 2 7
2 2 9
2 2 10
2 2 12
2 3 4
2 3 5
2 3 6
2 3 7
2 3 8
2 3 9
2 3 10
2 3 11
2 3 12
2 3 13
2 4 6
2 4 8
2 4 10
2 4 11
2 4 13
2 5 6
2 5 9
2 5 10
2 5 12
2 5 13
2 6 10
2 6 11
2 6 12
2 6 13
2 7 8
2 7 9
2 7 10
2 7 14
2 7 15
2 7 16
2 7 17
2 8 10
2 8 11
2 8 14
2 8 15
2 8 17
2 8 18
2 9 10
2 9 12
2 9 14
2 9 16
2 9 17
2 9 19
2 10 11
2 10 12
2 10 13
2 10 14
2 10 15
2 10 16
2 10 17
2 10 18
2 10 19
2 10 20
2 11 13
2 11 15
2 11 17
2 11 18
2 11 20
2 12 13
2 12 16
2 12 17
2 12 19
2 12 20
2 13 17
2 13 18
2 13 19
2 13 20
2 14 15
2 14 16
2 14 17
2 14 21
2 14 22
2 14 23
2 14 24
2 15 17
2 15 18
2 15 21
2 15 22
2 15 24
2 15 25
2 16 17
2 16 19
2 16 21
2 16 23
2 16 24
2 16 26
2 17 18
2 17 19
2 17 20
2 17 21
2 17 22
2 17 23
2 17 24
2 17 25
2 17 26
2 17 27
2 18 20
2 18 22
2 18 24
2 18 25
2 18 27
2 19 20
2 19 23
2 19 24
2 19 26
2 19 27
2 20 24
2 20 25
2 20 26
2 20 27
2 21 22
2 21 23
2 21 24
2 21 28
2 21 29
2 21 30
2 21 31
2 22 24
2 22 25
2 22 28
2 22 29
2 22 31
2 22 32
2 23 24
2 23 26
2 23 28
2 23 30
2 23 31
2 23 33
2 24 25
2 24 26
2 24 27
2 24 28
2 24 29
2 24 30
2 24 31
2 24 32
2 24 33
2 24 34
2 25 27
2 25 29
2 25 31
2 25 32
2 25 34
2 26 27
2 26 30
2 26 31
2 26 33
2 26 34
2 27 31
2 27 32
2 27 33
2 27 34
1 35
CELL_TYPES 233
3
3
3
3
3
3
3
3
3
3
3
3
3
3
3
3
3
3
3
3
3
3
3
3
3
3
3
3
3
3
3
3
3
3
3
3
3
3
3
3
3
3
3
3
3
3
3
3
3
3
3
3
3
3
3
3
3
3
3
3
3
3
3
3
3
3
3
3
3
3
3
3
3
3
3
3
3
3
3
3
3
3
3
3
3
3
3
3
3
3
3
3
3
3
3
3
3
3
3
3
3
3
3
3
3
3
3
3
3
3
3
3
3
3
3
3
3
3
3
3
3
3
3
3
3
3
3
3
3
3
3
3
3
3
3
3
3
3
3
3
3
3
3
3
3
3
3
3
3
3
3
3
3
3
3
3
3
3
3
3
3
3
3
3
3
3
3
3
3
3
3
3
3
3
3
3
3
3
3
3
3
3
3
3
3
3
3
3
3
3
3
3
3
3
3
3
3
3
3
3
3
3
3
3
3
3
3
3
3
3
3
3
3
3
3
3
3
3
3
3
3
3
3
3
3
3
3
3
3
3
3
3
1
CELL_DATA 233
SCALARS Strain double 1
LOOKUP_TABLE default
-0.04840
-0.16660
0.11646
0.12374
-0.16719
0.02940
-0.16719
0.02940
0.12374
0.11646
-0.16660
-0.04840
-0.00925
0.02312
0.24221
0.24114
0.02447
0.08623
0.02447
0.08623
0.24114
0.24221
0.02312
-0.00925
0.01919
0.32899
0.30435
0.30210
0.33114
0.29502
0.33114
0.29502
0.30210
0.30435
0.32899
0.01919
-0.01511
0.17159
0.22875
0.22750
0.17296
0.02325
0.17296
0.02325
0.22750
0.22875
0.17159
-0.01511
0.01087
0.31198
0.08655
0.08723
0.31492
-0.05930
0.31492
-0.05930
0.08723
0.08655
0.31198
0.01087
-0.04232
0.06054
-0.00436
0.09396
-0.01846
0.02499
0.00493
0.00213
0.05980
-0.02366
0.02728
0.00531
0.02201
0.01845
0.05980
0.01219
0.16352
0.04828
0.01116
0.01845
0.00213
-0.00436
-0.05499
-0.05371
-0.04879
-0.02246
-0.04879
-0.05371
-0.05499
0.06054
0.01116
0.04828
0.16352
0.01219
-0.04232
0.02201
0.00531
0.02728
-0.02366
0.00493
0.02499
-0.01846
0.09396
-0.00780
-0.03549
-0.04946
0.16149
0.00357
-0.05622
-0.03864
-0.05027
-0.03421
-0.00113
0.12861
-0.04256
-0.05817
-0.02577
-0.03421
-0.03316
0.26435
0.01075
-0.03209
-0.02577
-0.05027
-0.04946
-0.06908
-0.06996
-0.07608
0.15394
-0.07608
-0.06996
-0.06908
-0.03549
-0.03209
0.01075
0.26435
-0.03316
-0.00780
-0.05817
-0.04256
0.12861
-0.00113
-0.03864
-0.05622
0.00357
0.16149
-0.01054
-0.10302
-0.08912
0.17889
0.00553
-0.07286
-0.07280
-0.09069
-0.10157
0.00385
0.16684
-0.07493
-0.07253
-0.08402
-0.10157
-0.03796
0.14784
-0.04724
-0.03759
-0.08402
-0.09069
-0.08912
-0.05313
-0.05439
-0.01021
0.01233
-0.01021
-0.05439
-0.05313
-0.10302
-0.03759
-0.04724
0.14784
-0.03796
-0.01054
-0.07253
-0.07493
0.16684
0.00385
-0.07280
-0.07286
0.00553
0.17889
-0.01511
-0.06505
-0.06851
0.24002
0.03076
-0.07326
-0.06399
-0.06945
-0.06395
0.03165
0.23235
-0.06406
-0.07144
0.00159
-0.06395
-0.09079
0.25076
0.03580
-0.09211
0.00159
-0.06945
-0.06851
-0.08741
-0.08899
-0.00803
0.19112
-0.00803
-0.08899
-0.08741
-0.06505
-0.09211
0.03580
0.25076
-0.09079
-0.01511
-0.07144
-0.06406
0.23235
0.03165
-0.06399
-0.07326
0.03076
0.24002
0.10000
