# vtk DataFile Version 3.0
Point representing Sub_cellular elem model
ASCII

DATASET UNSTRUCTURED_GRID
POINTS 36 float
-39.93122 -22.52893 64.38412 
-39.94303 22.65824 62.60649 
0.16519 -42.78888 70.35351 
0.00000 0.00000 77.72411 
-0.16519 42.78888 70.35351 
39.94303 -22.65824 62.60649 
39.93122 22.52893 64.38412 
-32.04768 -20.82267 56.85726 
-31.94744 20.73572 56.29553 
-0.01009 -35.20756 61.40213 
0.00000 0.00000 67.61523 
0.01009 35.20756 61.40213 
31.94744 -20.73572 56.29553 
32.04768 20.82267 56.85726 
-25.92245 -17.64602 47.43714 
-25.85417 17.57699 47.31712 
-0.04684 -28.48946 50.77384 
0.00000 0.00000 56.02842 
0.04684 28.48946 50.77384 
25.85417 -17.57699 47.31712 
25.92245 17.64602 47.43714 
-21.49137 -14.41295 36.88382 
-21.46111 14.39876 36.89987 
-0.03576 -25.44583 39.80878 
0.00000 0.00000 46.14107 
0.03576 25.44583 39.80878 
21.46111 -14.39876 36.89987 
21.49137 14.41295 36.88382 
-12.96162 -11.62674 27.65385 
-12.96131 11.64262 27.72697 
-0.02853 -17.95568 29.09822 
0.00000 0.00000 33.23724 
0.02853 17.95568 29.09822 
12.96131 -11.64262 27.72697 
12.96162 11.62674 27.65385 
0.00000 0.00000 -0.10000 
CELLS 233 698
2 0 1
2 0 2
2 0 3
2 1 3
2 1 4
2 2 3
2 2 5
2 3 4
2 3 5
2 3 6
2 4 6
2 5 6
2 7 8
2 7 9
2 7 10
2 8 10
2 8 11
2 9 10
2 9 12
2 10 11
2 10 12
2 10 13
2 11 13
2 12 13
2 14 15
2 14 16
2 14 17
2 15 17
2 15 18
2 16 17
2 16 19
2 17 18
2 17 19
2 17 20
2 18 20
2 19 20
2 21 22
2 21 23
2 21 24
2 22 24
2 22 25
2 23 24
2 23 26
2 24 25
2 24 26
2 24 27
2 25 27
2 26 27
2 28 29
2 28 30
2 28 31
2 29 31
2 29 32
2 30 31
2 30 33
2 31 32
2 31 33
2 31 34
2 32 34
2 33 34
2 0 1
2 0 2
2 0 3
2 0 7
2 0 8
2 0 9
2 0 10
2 1 3
2 1 4
2 1 7
2 1 8
2 1 10
2 1 11
2 2 3
2 2 5
2 2 7
2 2 9
2 2 10
2 2 12
2 3 4
2 3 5
2 3 6
2 3 7
2 3 8
2 3 9
2 3 10
2 3 11
2 3 12
2 3 13
2 4 6
2 4 8
2 4 10
2 4 11
2 4 13
2 5 6
2 5 9
2 5 10
2 5 12
2 5 13
2 6 10
2 6 11
2 6 12
2 6 13
2 7 8
2 7 9
2 7 10
2 7 14
2 7 15
2 7 16
2 7 17
2 8 10
2 8 11
2 8 14
2 8 15
2 8 17
2 8 18
2 9 10
2 9 12
2 9 14
2 9 16
2 9 17
2 9 19
2 10 11
2 10 12
2 10 13
2 10 14
2 10 15
2 10 16
2 10 17
2 10 18
2 10 19
2 10 20
2 11 13
2 11 15
2 11 17
2 11 18
2 11 20
2 12 13
2 12 16
2 12 17
2 12 19
2 12 20
2 13 17
2 13 18
2 13 19
2 13 20
2 14 15
2 14 16
2 14 17
2 14 21
2 14 22
2 14 23
2 14 24
2 15 17
2 15 18
2 15 21
2 15 22
2 15 24
2 15 25
2 16 17
2 16 19
2 16 21
2 16 23
2 16 24
2 16 26
2 17 18
2 17 19
2 17 20
2 17 21
2 17 22
2 17 23
2 17 24
2 17 25
2 17 26
2 17 27
2 18 20
2 18 22
2 18 24
2 18 25
2 18 27
2 19 20
2 19 23
2 19 24
2 19 26
2 19 27
2 20 24
2 20 25
2 20 26
2 20 27
2 21 22
2 21 23
2 21 24
2 21 28
2 21 29
2 21 30
2 21 31
2 22 24
2 22 25
2 22 28
2 22 29
2 22 31
2 22 32
2 23 24
2 23 26
2 23 28
2 23 30
2 23 31
2 23 33
2 24 25
2 24 26
2 24 27
2 24 28
2 24 29
2 24 30
2 24 31
2 24 32
2 24 33
2 24 34
2 25 27
2 25 29
2 25 31
2 25 32
2 25 34
2 26 27
2 26 30
2 26 31
2 26 33
2 26 34
2 27 31
2 27 32
2 27 33
2 27 34
1 35
CELL_TYPES 233
3
3
3
3
3
3
3
3
3
3
3
3
3
3
3
3
3
3
3
3
3
3
3
3
3
3
3
3
3
3
3
3
3
3
3
3
3
3
3
3
3
3
3
3
3
3
3
3
3
3
3
3
3
3
3
3
3
3
3
3
3
3
3
3
3
3
3
3
3
3
3
3
3
3
3
3
3
3
3
3
3
3
3
3
3
3
3
3
3
3
3
3
3
3
3
3
3
3
3
3
3
3
3
3
3
3
3
3
3
3
3
3
3
3
3
3
3
3
3
3
3
3
3
3
3
3
3
3
3
3
3
3
3
3
3
3
3
3
3
3
3
3
3
3
3
3
3
3
3
3
3
3
3
3
3
3
3
3
3
3
3
3
3
3
3
3
3
3
3
3
3
3
3
3
3
3
3
3
3
3
3
3
3
3
3
3
3
3
3
3
3
3
3
3
3
3
3
3
3
3
3
3
3
3
3
3
3
3
3
3
3
3
3
3
3
3
3
3
3
3
3
3
3
3
3
3
3
3
3
3
3
3
1
CELL_DATA 233
SCALARS Strain double 1
LOOKUP_TABLE default
-0.01593
-0.16391
0.10593
0.09769
-0.16254
0.01728
-0.16254
0.01728
0.09769
0.10593
-0.16391
-0.01593
0.00117
0.04760
0.22940
0.22621
0.04780
0.10322
0.04780
0.10322
0.22621
0.22940
0.04760
0.00117
0.02352
0.34357
0.29210
0.29231
0.34297
0.26963
0.34297
0.26963
0.29231
0.29210
0.34357
0.02352
-0.00461
0.17379
0.22211
0.22195
0.17419
0.01593
0.17419
0.01593
0.22195
0.22211
0.17379
-0.00461
-0.01110
0.37406
0.13330
0.13329
0.37718
-0.03671
0.37718
-0.03671
0.13329
0.13330
0.37406
-0.01110
-0.05781
0.06775
-0.00515
0.10324
-0.02549
0.02772
0.00130
0.00729
0.06611
-0.02915
0.03659
0.00636
0.02534
0.02299
0.06611
0.00978
0.17318
0.04937
0.00733
0.02299
0.00729
-0.00515
-0.05138
-0.04795
-0.05024
0.01089
-0.05024
-0.04795
-0.05138
0.06775
0.00733
0.04937
0.17318
0.00978
-0.05781
0.02534
0.00636
0.03659
-0.02915
0.00130
0.02772
-0.02549
0.10324
-0.00607
-0.04237
-0.05052
0.16768
0.00432
-0.05924
-0.04136
-0.04981
-0.04130
-0.00070
0.13012
-0.04486
-0.06159
-0.03318
-0.04130
-0.03640
0.25736
0.00124
-0.03504
-0.03318
-0.04981
-0.05052
-0.06488
-0.06525
-0.06961
0.15868
-0.06961
-0.06525
-0.06488
-0.04237
-0.03504
0.00124
0.25736
-0.03640
-0.00607
-0.06159
-0.04486
0.13012
-0.00070
-0.04136
-0.05924
0.00432
0.16768
-0.01158
-0.10344
-0.08760
0.18936
0.00353
-0.07427
-0.07437
-0.08928
-0.10140
0.00069
0.17439
-0.07731
-0.07460
-0.08070
-0.10140
-0.03870
0.13796
-0.04883
-0.03719
-0.08070
-0.08928
-0.08760
-0.05066
-0.05173
-0.00560
-0.01126
-0.00560
-0.05173
-0.05066
-0.10344
-0.03719
-0.04883
0.13796
-0.03870
-0.01158
-0.07460
-0.07731
0.17439
0.00069
-0.07437
-0.07427
0.00353
0.18936
-0.02185
-0.06699
-0.06697
0.28730
0.03129
-0.08394
-0.06763
-0.06821
-0.06542
0.03101
0.28058
-0.06872
-0.08265
0.00669
-0.06542
-0.10831
0.30698
0.04200
-0.10863
0.00669
-0.06821
-0.06697
-0.09391
-0.09555
-0.01845
0.29038
-0.01845
-0.09555
-0.09391
-0.06699
-0.10863
0.04200
0.30698
-0.10831
-0.02185
-0.08265
-0.06872
0.28058
0.03101
-0.06763
-0.08394
0.03129
0.28730
0.10000
