# vtk DataFile Version 3.0
Point representing Sub_cellular elem model
ASCII

DATASET UNSTRUCTURED_GRID
POINTS 36 float
-39.42171 -23.17629 63.34575 
-39.48164 23.26120 62.89014 
0.04837 -41.74627 67.74708 
0.00000 0.00000 78.18715 
-0.04837 41.74627 67.74708 
39.48164 -23.26120 62.89014 
39.42171 23.17629 63.34575 
-32.94764 -20.86498 55.53966 
-32.92404 20.83683 55.40177 
-0.00690 -35.38149 59.34794 
0.00000 0.00000 67.89475 
0.00690 35.38149 59.34794 
32.92404 -20.83683 55.40177 
32.94764 20.86498 55.53966 
-27.34416 -17.72016 46.89876 
-27.32429 17.68805 46.87919 
-0.01764 -29.42564 50.10509 
0.00000 0.00000 57.02172 
0.01764 29.42564 50.10509 
27.32429 -17.68805 46.87919 
27.34416 17.72016 46.89876 
-22.55474 -14.49477 37.51989 
-22.54771 14.48155 37.53804 
-0.01156 -25.37148 40.52551 
0.00000 0.00000 47.50780 
0.01156 25.37148 40.52551 
22.54771 -14.48155 37.53804 
22.55474 14.49477 37.51989 
-14.80346 -11.58221 29.13889 
-14.81715 11.58311 29.17349 
-0.01189 -18.40998 30.86310 
0.00000 0.00000 35.30343 
0.01189 18.40998 30.86310 
14.81715 -11.58311 29.17349 
14.80346 11.58221 29.13889 
0.00000 0.00000 -0.10000 
CELLS 233 698
2 0 1
2 0 2
2 0 3
2 1 3
2 1 4
2 2 3
2 2 5
2 3 4
2 3 5
2 3 6
2 4 6
2 5 6
2 7 8
2 7 9
2 7 10
2 8 10
2 8 11
2 9 10
2 9 12
2 10 11
2 10 12
2 10 13
2 11 13
2 12 13
2 14 15
2 14 16
2 14 17
2 15 17
2 15 18
2 16 17
2 16 19
2 17 18
2 17 19
2 17 20
2 18 20
2 19 20
2 21 22
2 21 23
2 21 24
2 22 24
2 22 25
2 23 24
2 23 26
2 24 25
2 24 26
2 24 27
2 25 27
2 26 27
2 28 29
2 28 30
2 28 31
2 29 31
2 29 32
2 30 31
2 30 33
2 31 32
2 31 33
2 31 34
2 32 34
2 33 34
2 0 1
2 0 2
2 0 3
2 0 7
2 0 8
2 0 9
2 0 10
2 1 3
2 1 4
2 1 7
2 1 8
2 1 10
2 1 11
2 2 3
2 2 5
2 2 7
2 2 9
2 2 10
2 2 12
2 3 4
2 3 5
2 3 6
2 3 7
2 3 8
2 3 9
2 3 10
2 3 11
2 3 12
2 3 13
2 4 6
2 4 8
2 4 10
2 4 11
2 4 13
2 5 6
2 5 9
2 5 10
2 5 12
2 5 13
2 6 10
2 6 11
2 6 12
2 6 13
2 7 8
2 7 9
2 7 10
2 7 14
2 7 15
2 7 16
2 7 17
2 8 10
2 8 11
2 8 14
2 8 15
2 8 17
2 8 18
2 9 10
2 9 12
2 9 14
2 9 16
2 9 17
2 9 19
2 10 11
2 10 12
2 10 13
2 10 14
2 10 15
2 10 16
2 10 17
2 10 18
2 10 19
2 10 20
2 11 13
2 11 15
2 11 17
2 11 18
2 11 20
2 12 13
2 12 16
2 12 17
2 12 19
2 12 20
2 13 17
2 13 18
2 13 19
2 13 20
2 14 15
2 14 16
2 14 17
2 14 21
2 14 22
2 14 23
2 14 24
2 15 17
2 15 18
2 15 21
2 15 22
2 15 24
2 15 25
2 16 17
2 16 19
2 16 21
2 16 23
2 16 24
2 16 26
2 17 18
2 17 19
2 17 20
2 17 21
2 17 22
2 17 23
2 17 24
2 17 25
2 17 26
2 17 27
2 18 20
2 18 22
2 18 24
2 18 25
2 18 27
2 19 20
2 19 23
2 19 24
2 19 26
2 19 27
2 20 24
2 20 25
2 20 26
2 20 27
2 21 22
2 21 23
2 21 24
2 21 28
2 21 29
2 21 30
2 21 31
2 22 24
2 22 25
2 22 28
2 22 29
2 22 31
2 22 32
2 23 24
2 23 26
2 23 28
2 23 30
2 23 31
2 23 33
2 24 25
2 24 26
2 24 27
2 24 28
2 24 29
2 24 30
2 24 31
2 24 32
2 24 33
2 24 34
2 25 27
2 25 29
2 25 31
2 25 32
2 25 34
2 26 27
2 26 30
2 26 31
2 26 33
2 26 34
2 27 31
2 27 32
2 27 33
2 27 34
1 35
CELL_TYPES 233
3
3
3
3
3
3
3
3
3
3
3
3
3
3
3
3
3
3
3
3
3
3
3
3
3
3
3
3
3
3
3
3
3
3
3
3
3
3
3
3
3
3
3
3
3
3
3
3
3
3
3
3
3
3
3
3
3
3
3
3
3
3
3
3
3
3
3
3
3
3
3
3
3
3
3
3
3
3
3
3
3
3
3
3
3
3
3
3
3
3
3
3
3
3
3
3
3
3
3
3
3
3
3
3
3
3
3
3
3
3
3
3
3
3
3
3
3
3
3
3
3
3
3
3
3
3
3
3
3
3
3
3
3
3
3
3
3
3
3
3
3
3
3
3
3
3
3
3
3
3
3
3
3
3
3
3
3
3
3
3
3
3
3
3
3
3
3
3
3
3
3
3
3
3
3
3
3
3
3
3
3
3
3
3
3
3
3
3
3
3
3
3
3
3
3
3
3
3
3
3
3
3
3
3
3
3
3
3
3
3
3
3
3
3
3
3
3
3
3
3
3
3
3
3
3
3
3
3
3
3
3
3
1
CELL_DATA 233
SCALARS Strain double 1
LOOKUP_TABLE default
0.01498
-0.07504
0.02875
0.02164
-0.07433
-0.00131
-0.07433
-0.00131
0.02164
0.02875
-0.07504
0.01498
0.00543
0.03205
0.08074
0.08120
0.03105
0.03614
0.03105
0.03614
0.08120
0.08074
0.03205
0.00543
0.01123
0.13938
0.11975
0.12145
0.13770
0.10950
0.13770
0.10950
0.12145
0.11975
0.13938
0.01123
0.00107
0.08187
0.09754
0.09830
0.08096
0.01160
0.08096
0.01160
0.09830
0.09754
0.08187
0.00107
-0.01553
0.17868
0.09717
0.09743
0.17782
-0.01011
0.17782
-0.01011
0.09743
0.09717
0.17868
-0.01553
-0.03244
0.03294
0.00169
0.04014
-0.01544
0.01456
0.00116
0.00654
0.03245
-0.01511
0.02447
0.00424
0.01465
0.01386
0.03245
0.00128
0.05385
0.02171
0.00028
0.01386
0.00654
0.00169
-0.01753
-0.01668
-0.01897
0.02924
-0.01897
-0.01668
-0.01753
0.03294
0.00028
0.02171
0.05385
0.00128
-0.03244
0.01465
0.00424
0.02447
-0.01511
0.00116
0.01456
-0.01544
0.04014
-0.00273
-0.02109
-0.02170
0.07682
0.00088
-0.03135
-0.02131
-0.02149
-0.02063
-0.00002
0.06727
-0.02205
-0.03145
-0.01567
-0.02063
-0.02039
0.09956
-0.00318
-0.01987
-0.01567
-0.02149
-0.02170
-0.02794
-0.02839
-0.03334
0.08730
-0.03334
-0.02839
-0.02794
-0.02109
-0.01987
-0.00318
0.09956
-0.02039
-0.00273
-0.03145
-0.02205
0.06727
-0.00002
-0.02131
-0.03135
0.00088
0.07682
-0.00639
-0.05117
-0.04253
0.10138
-0.00091
-0.04137
-0.03885
-0.04329
-0.05026
-0.00156
0.09706
-0.03984
-0.04113
-0.04079
-0.05026
-0.01731
0.04021
-0.02654
-0.01664
-0.04079
-0.04329
-0.04253
-0.02223
-0.02285
-0.00272
-0.04861
-0.00272
-0.02285
-0.02223
-0.05117
-0.01664
-0.02654
0.04021
-0.01731
-0.00639
-0.04113
-0.03984
0.09706
-0.00156
-0.03885
-0.04137
-0.00091
0.10138
-0.01626
-0.03217
-0.02868
0.17817
0.01517
-0.05521
-0.04017
-0.02931
-0.03148
0.01532
0.17529
-0.04059
-0.05430
0.01025
-0.03148
-0.07984
0.19090
0.02703
-0.07960
0.01025
-0.02931
-0.02868
-0.06233
-0.06290
-0.01597
0.22044
-0.01597
-0.06290
-0.06233
-0.03217
-0.07960
0.02703
0.19090
-0.07984
-0.01626
-0.05430
-0.04059
0.17529
0.01532
-0.04017
-0.05521
0.01517
0.17817
0.10000
