# vtk DataFile Version 3.0
Point representing Sub_cellular elem model
ASCII

DATASET UNSTRUCTURED_GRID
POINTS 36 float
-39.62270 -22.95704 63.72826 
-39.67988 23.05736 62.96156 
0.07671 -42.13178 68.47102 
0.00000 0.00000 77.98860 
-0.07671 42.13178 68.47102 
39.67988 -23.05736 62.96156 
39.62270 22.95704 63.72826 
-32.65816 -20.84651 55.97255 
-32.61936 20.80442 55.74075 
-0.00899 -35.32517 59.99861 
0.00000 0.00000 67.73349 
0.00899 35.32517 59.99861 
32.61936 -20.80442 55.74075 
32.65816 20.84651 55.97255 
-26.87072 -17.69623 47.06654 
-26.84103 17.65673 47.03450 
-0.02487 -29.10999 50.33247 
0.00000 0.00000 56.64307 
0.02487 29.10999 50.33247 
26.84103 -17.65673 47.03450 
26.87072 17.69623 47.06654 
-22.20006 -14.46559 37.29572 
-22.19056 14.45501 37.32679 
-0.01801 -25.40678 40.28919 
0.00000 0.00000 47.05080 
0.01801 25.40678 40.28919 
22.19056 -14.45501 37.32679 
22.20006 14.46559 37.29572 
-14.17862 -11.59748 28.64246 
-14.19632 11.60939 28.70300 
-0.01452 -18.26534 30.28793 
0.00000 0.00000 34.62473 
0.01452 18.26534 30.28793 
14.19632 -11.60939 28.70300 
14.17862 11.59748 28.64246 
0.00000 0.00000 -0.10000 
CELLS 233 698
2 0 1
2 0 2
2 0 3
2 1 3
2 1 4
2 2 3
2 2 5
2 3 4
2 3 5
2 3 6
2 4 6
2 5 6
2 7 8
2 7 9
2 7 10
2 8 10
2 8 11
2 9 10
2 9 12
2 10 11
2 10 12
2 10 13
2 11 13
2 12 13
2 14 15
2 14 16
2 14 17
2 15 17
2 15 18
2 16 17
2 16 19
2 17 18
2 17 19
2 17 20
2 18 20
2 19 20
2 21 22
2 21 23
2 21 24
2 22 24
2 22 25
2 23 24
2 23 26
2 24 25
2 24 26
2 24 27
2 25 27
2 26 27
2 28 29
2 28 30
2 28 31
2 29 31
2 29 32
2 30 31
2 30 33
2 31 32
2 31 33
2 31 34
2 32 34
2 33 34
2 0 1
2 0 2
2 0 3
2 0 7
2 0 8
2 0 9
2 0 10
2 1 3
2 1 4
2 1 7
2 1 8
2 1 10
2 1 11
2 2 3
2 2 5
2 2 7
2 2 9
2 2 10
2 2 12
2 3 4
2 3 5
2 3 6
2 3 7
2 3 8
2 3 9
2 3 10
2 3 11
2 3 12
2 3 13
2 4 6
2 4 8
2 4 10
2 4 11
2 4 13
2 5 6
2 5 9
2 5 10
2 5 12
2 5 13
2 6 10
2 6 11
2 6 12
2 6 13
2 7 8
2 7 9
2 7 10
2 7 14
2 7 15
2 7 16
2 7 17
2 8 10
2 8 11
2 8 14
2 8 15
2 8 17
2 8 18
2 9 10
2 9 12
2 9 14
2 9 16
2 9 17
2 9 19
2 10 11
2 10 12
2 10 13
2 10 14
2 10 15
2 10 16
2 10 17
2 10 18
2 10 19
2 10 20
2 11 13
2 11 15
2 11 17
2 11 18
2 11 20
2 12 13
2 12 16
2 12 17
2 12 19
2 12 20
2 13 17
2 13 18
2 13 19
2 13 20
2 14 15
2 14 16
2 14 17
2 14 21
2 14 22
2 14 23
2 14 24
2 15 17
2 15 18
2 15 21
2 15 22
2 15 24
2 15 25
2 16 17
2 16 19
2 16 21
2 16 23
2 16 24
2 16 26
2 17 18
2 17 19
2 17 20
2 17 21
2 17 22
2 17 23
2 17 24
2 17 25
2 17 26
2 17 27
2 18 20
2 18 22
2 18 24
2 18 25
2 18 27
2 19 20
2 19 23
2 19 24
2 19 26
2 19 27
2 20 24
2 20 25
2 20 26
2 20 27
2 21 22
2 21 23
2 21 24
2 21 28
2 21 29
2 21 30
2 21 31
2 22 24
2 22 25
2 22 28
2 22 29
2 22 31
2 22 32
2 23 24
2 23 26
2 23 28
2 23 30
2 23 31
2 23 33
2 24 25
2 24 26
2 24 27
2 24 28
2 24 29
2 24 30
2 24 31
2 24 32
2 24 33
2 24 34
2 25 27
2 25 29
2 25 31
2 25 32
2 25 34
2 26 27
2 26 30
2 26 31
2 26 33
2 26 34
2 27 31
2 27 32
2 27 33
2 27 34
1 35
CELL_TYPES 233
3
3
3
3
3
3
3
3
3
3
3
3
3
3
3
3
3
3
3
3
3
3
3
3
3
3
3
3
3
3
3
3
3
3
3
3
3
3
3
3
3
3
3
3
3
3
3
3
3
3
3
3
3
3
3
3
3
3
3
3
3
3
3
3
3
3
3
3
3
3
3
3
3
3
3
3
3
3
3
3
3
3
3
3
3
3
3
3
3
3
3
3
3
3
3
3
3
3
3
3
3
3
3
3
3
3
3
3
3
3
3
3
3
3
3
3
3
3
3
3
3
3
3
3
3
3
3
3
3
3
3
3
3
3
3
3
3
3
3
3
3
3
3
3
3
3
3
3
3
3
3
3
3
3
3
3
3
3
3
3
3
3
3
3
3
3
3
3
3
3
3
3
3
3
3
3
3
3
3
3
3
3
3
3
3
3
3
3
3
3
3
3
3
3
3
3
3
3
3
3
3
3
3
3
3
3
3
3
3
3
3
3
3
3
3
3
3
3
3
3
3
3
3
3
3
3
3
3
3
3
3
3
1
CELL_DATA 233
SCALARS Strain double 1
LOOKUP_TABLE default
0.00432
-0.10841
0.05380
0.04583
-0.10748
0.00570
-0.10748
0.00570
0.04583
0.05380
-0.10841
0.00432
0.00391
0.03764
0.12643
0.12585
0.03704
0.05752
0.03704
0.05752
0.12585
0.12643
0.03764
0.00391
0.01564
0.20038
0.17170
0.17307
0.19889
0.15785
0.19889
0.15785
0.17307
0.17170
0.20038
0.01564
-0.00085
0.11171
0.13672
0.13725
0.11115
0.01340
0.11115
0.01340
0.13725
0.13672
0.11171
-0.00085
-0.01376
0.23525
0.10878
0.10928
0.23532
-0.01868
0.23532
-0.01868
0.10928
0.10878
0.23525
-0.01376
-0.04116
0.04472
-0.00072
0.06353
-0.01896
0.01976
0.00142
0.00612
0.04376
-0.01949
0.03473
0.00518
0.01928
0.01766
0.04376
0.00339
0.08683
0.03130
0.00193
0.01766
0.00612
-0.00072
-0.02918
-0.02773
-0.02979
0.02551
-0.02979
-0.02773
-0.02918
0.04472
0.00193
0.03130
0.08683
0.00339
-0.04116
0.01928
0.00518
0.03473
-0.01949
0.00142
0.01976
-0.01896
0.06353
-0.00394
-0.02803
-0.03171
0.10786
0.00191
-0.04044
-0.02825
-0.03135
-0.02736
0.00014
0.09131
-0.02952
-0.04092
-0.02208
-0.02736
-0.02632
0.14919
-0.00244
-0.02568
-0.02208
-0.03135
-0.03171
-0.04104
-0.04159
-0.04658
0.10904
-0.04658
-0.04159
-0.04104
-0.02803
-0.02568
-0.00244
0.14919
-0.02632
-0.00394
-0.04092
-0.02952
0.09131
0.00014
-0.02825
-0.04044
0.00191
0.10786
-0.00794
-0.06852
-0.05799
0.13013
0.00035
-0.05264
-0.05109
-0.05898
-0.06734
-0.00063
0.12302
-0.05246
-0.05234
-0.05480
-0.06734
-0.02457
0.07042
-0.03464
-0.02385
-0.05480
-0.05898
-0.05799
-0.03238
-0.03325
-0.00429
-0.04077
-0.00429
-0.03325
-0.03238
-0.06852
-0.02385
-0.03464
0.07042
-0.02457
-0.00794
-0.05234
-0.05246
0.12302
-0.00063
-0.05109
-0.05264
0.00035
0.13013
-0.01816
-0.04352
-0.04141
0.21429
0.02030
-0.06531
-0.04984
-0.04221
-0.04258
0.02064
0.20987
-0.05021
-0.06415
0.00934
-0.04258
-0.08992
0.22893
0.03208
-0.09010
0.00934
-0.04221
-0.04141
-0.07346
-0.07446
-0.01705
0.24261
-0.01705
-0.07446
-0.07346
-0.04352
-0.09010
0.03208
0.22893
-0.08992
-0.01816
-0.06415
-0.05021
0.20987
0.02064
-0.04984
-0.06531
0.02030
0.21429
0.10000
