# vtk DataFile Version 3.0
Point representing Sub_cellular elem model
ASCII

DATASET UNSTRUCTURED_GRID
POINTS 36 float
-40.07175 -22.20455 64.83128 
-39.88938 22.35189 61.22648 
0.34448 -43.07555 72.68439 
0.00000 0.00000 77.57266 
-0.34448 43.07555 72.68439 
39.88938 -22.35189 61.22648 
40.07175 22.20455 64.83128 
-31.52244 -20.84607 57.65373 
-31.28981 20.68021 56.50823 
-0.00578 -35.13214 62.70263 
0.00000 0.00000 67.72802 
0.00578 35.13214 62.70263 
31.28981 -20.68021 56.50823 
31.52244 20.84607 57.65373 
-25.17147 -17.61969 47.80128 
-25.03132 17.49430 47.49167 
-0.08434 -28.02658 51.13839 
0.00000 0.00000 55.69783 
0.08434 28.02658 51.13839 
25.03132 -17.49430 47.49167 
25.17147 17.61969 47.80128 
-20.93490 -14.38025 36.60894 
-20.86315 14.34836 36.55845 
-0.06140 -25.45286 39.42004 
0.00000 0.00000 45.44651 
0.06140 25.45286 39.42004 
20.86315 -14.34836 36.55845 
20.93490 14.38025 36.60894 
-12.03758 -11.64748 26.89083 
-11.98709 11.64574 26.93192 
-0.05278 -17.68465 28.12877 
0.00000 0.00000 32.14434 
0.05278 17.68465 28.12877 
11.98709 -11.64574 26.93192 
12.03758 11.64748 26.89083 
0.00000 0.00000 -0.10000 
CELLS 233 698
2 0 1
2 0 2
2 0 3
2 1 3
2 1 4
2 2 3
2 2 5
2 3 4
2 3 5
2 3 6
2 4 6
2 5 6
2 7 8
2 7 9
2 7 10
2 8 10
2 8 11
2 9 10
2 9 12
2 10 11
2 10 12
2 10 13
2 11 13
2 12 13
2 14 15
2 14 16
2 14 17
2 15 17
2 15 18
2 16 17
2 16 19
2 17 18
2 17 19
2 17 20
2 18 20
2 19 20
2 21 22
2 21 23
2 21 24
2 22 24
2 22 25
2 23 24
2 23 26
2 24 25
2 24 26
2 24 27
2 25 27
2 26 27
2 28 29
2 28 30
2 28 31
2 29 31
2 29 32
2 30 31
2 30 33
2 31 32
2 31 33
2 31 34
2 32 34
2 33 34
2 0 1
2 0 2
2 0 3
2 0 7
2 0 8
2 0 9
2 0 10
2 1 3
2 1 4
2 1 7
2 1 8
2 1 10
2 1 11
2 2 3
2 2 5
2 2 7
2 2 9
2 2 10
2 2 12
2 3 4
2 3 5
2 3 6
2 3 7
2 3 8
2 3 9
2 3 10
2 3 11
2 3 12
2 3 13
2 4 6
2 4 8
2 4 10
2 4 11
2 4 13
2 5 6
2 5 9
2 5 10
2 5 12
2 5 13
2 6 10
2 6 11
2 6 12
2 6 13
2 7 8
2 7 9
2 7 10
2 7 14
2 7 15
2 7 16
2 7 17
2 8 10
2 8 11
2 8 14
2 8 15
2 8 17
2 8 18
2 9 10
2 9 12
2 9 14
2 9 16
2 9 17
2 9 19
2 10 11
2 10 12
2 10 13
2 10 14
2 10 15
2 10 16
2 10 17
2 10 18
2 10 19
2 10 20
2 11 13
2 11 15
2 11 17
2 11 18
2 11 20
2 12 13
2 12 16
2 12 17
2 12 19
2 12 20
2 13 17
2 13 18
2 13 19
2 13 20
2 14 15
2 14 16
2 14 17
2 14 21
2 14 22
2 14 23
2 14 24
2 15 17
2 15 18
2 15 21
2 15 22
2 15 24
2 15 25
2 16 17
2 16 19
2 16 21
2 16 23
2 16 24
2 16 26
2 17 18
2 17 19
2 17 20
2 17 21
2 17 22
2 17 23
2 17 24
2 17 25
2 17 26
2 17 27
2 18 20
2 18 22
2 18 24
2 18 25
2 18 27
2 19 20
2 19 23
2 19 24
2 19 26
2 19 27
2 20 24
2 20 25
2 20 26
2 20 27
2 21 22
2 21 23
2 21 24
2 21 28
2 21 29
2 21 30
2 21 31
2 22 24
2 22 25
2 22 28
2 22 29
2 22 31
2 22 32
2 23 24
2 23 26
2 23 28
2 23 30
2 23 31
2 23 33
2 24 25
2 24 26
2 24 27
2 24 28
2 24 29
2 24 30
2 24 31
2 24 32
2 24 33
2 24 34
2 25 27
2 25 29
2 25 31
2 25 32
2 25 34
2 26 27
2 26 30
2 26 31
2 26 33
2 26 34
2 27 31
2 27 32
2 27 33
2 27 34
1 35
CELL_TYPES 233
3
3
3
3
3
3
3
3
3
3
3
3
3
3
3
3
3
3
3
3
3
3
3
3
3
3
3
3
3
3
3
3
3
3
3
3
3
3
3
3
3
3
3
3
3
3
3
3
3
3
3
3
3
3
3
3
3
3
3
3
3
3
3
3
3
3
3
3
3
3
3
3
3
3
3
3
3
3
3
3
3
3
3
3
3
3
3
3
3
3
3
3
3
3
3
3
3
3
3
3
3
3
3
3
3
3
3
3
3
3
3
3
3
3
3
3
3
3
3
3
3
3
3
3
3
3
3
3
3
3
3
3
3
3
3
3
3
3
3
3
3
3
3
3
3
3
3
3
3
3
3
3
3
3
3
3
3
3
3
3
3
3
3
3
3
3
3
3
3
3
3
3
3
3
3
3
3
3
3
3
3
3
3
3
3
3
3
3
3
3
3
3
3
3
3
3
3
3
3
3
3
3
3
3
3
3
3
3
3
3
3
3
3
3
3
3
3
3
3
3
3
3
3
3
3
3
3
3
3
3
3
3
1
CELL_DATA 233
SCALARS Strain double 1
LOOKUP_TABLE default
-0.02931
-0.19776
0.14771
0.14380
-0.19576
0.02050
-0.19576
0.02050
0.14380
0.14771
-0.19776
-0.02931
0.00027
0.05396
0.32265
0.31653
0.05488
0.14218
0.05488
0.14218
0.31653
0.32265
0.05396
0.00027
0.02920
0.48134
0.40608
0.40410
0.48314
0.37521
0.48314
0.37521
0.40410
0.40608
0.48134
0.02920
-0.00748
0.22458
0.29704
0.29576
0.22646
0.01730
0.22646
0.01730
0.29576
0.29704
0.22458
-0.00748
-0.01009
0.51749
0.15446
0.15235
0.52494
-0.05190
0.52494
-0.05190
0.15235
0.15446
0.51749
-0.01009
-0.06863
0.08756
-0.00928
0.12451
-0.02927
0.03167
0.00003
0.01172
0.08598
-0.03827
-0.00497
0.00615
0.02591
0.02143
0.08598
0.01959
0.27615
0.06122
0.01526
0.02143
0.01172
-0.00928
-0.06933
-0.06287
-0.06633
-0.01554
-0.06633
-0.06287
-0.06933
0.08756
0.01526
0.06122
0.27615
0.01959
-0.06863
0.02591
0.00615
-0.00497
-0.03827
0.00003
0.03167
-0.02927
0.12451
-0.00654
-0.05432
-0.06468
0.21579
0.00790
-0.07511
-0.05102
-0.06379
-0.05287
-0.00316
0.14287
-0.05922
-0.08164
-0.04026
-0.05287
-0.04167
0.35730
0.00710
-0.03868
-0.04026
-0.06379
-0.06468
-0.08163
-0.08129
-0.08441
0.20302
-0.08441
-0.08129
-0.08163
-0.05432
-0.03868
0.00710
0.35730
-0.04167
-0.00654
-0.08164
-0.05922
0.14287
-0.00316
-0.05102
-0.07511
0.00790
0.21579
-0.01460
-0.13165
-0.10977
0.23980
0.00748
-0.09026
-0.09117
-0.11263
-0.12806
0.00067
0.21163
-0.09731
-0.09264
-0.09894
-0.12806
-0.04942
0.19976
-0.05756
-0.04578
-0.09894
-0.11263
-0.10977
-0.06297
-0.06389
-0.00437
0.02513
-0.00437
-0.06389
-0.06297
-0.13165
-0.04578
-0.05756
0.19976
-0.04942
-0.01460
-0.09264
-0.09731
0.21163
0.00067
-0.09117
-0.09026
0.00748
0.23980
-0.02467
-0.08648
-0.08704
0.34564
0.04084
-0.09683
-0.07994
-0.08895
-0.08396
0.03844
0.33702
-0.08297
-0.09616
0.00418
-0.08396
-0.12144
0.37054
0.04960
-0.12077
0.00418
-0.08895
-0.08704
-0.10813
-0.11011
-0.01862
0.33022
-0.01862
-0.11011
-0.10813
-0.08648
-0.12077
0.04960
0.37054
-0.12144
-0.02467
-0.09616
-0.08297
0.33702
0.03844
-0.07994
-0.09683
0.04084
0.34564
0.10000
