# vtk DataFile Version 3.0
Point representing Sub_cellular elem model
ASCII

DATASET UNSTRUCTURED_GRID
POINTS 36 float
-39.44842 -23.48531 63.68391 
-39.42264 23.47193 63.24681 
0.02725 -41.87444 67.82302 
-0.00000 0.00000 77.22857 
-0.02725 41.87444 67.82302 
39.42264 -23.47193 63.24681 
39.44842 23.48531 63.68391 
-33.04976 -20.84264 55.73029 
-33.02132 20.80144 55.63868 
-0.01356 -35.57788 59.30069 
-0.00000 0.00000 67.26465 
0.01356 35.57788 59.30069 
33.02132 -20.80144 55.63868 
33.04976 20.84264 55.73029 
-27.39981 -17.74564 47.01977 
-27.38972 17.73469 47.05362 
-0.01402 -29.38652 49.99922 
-0.00000 0.00000 56.53192 
0.01402 29.38652 49.99922 
27.38972 -17.73469 47.05362 
27.39981 17.74564 47.01977 
-22.75199 -14.60515 37.69414 
-22.75814 14.61944 37.77109 
-0.01140 -25.29204 40.19312 
-0.00000 0.00000 46.66534 
0.01140 25.29204 40.19312 
22.75814 -14.61944 37.77109 
22.75199 14.60515 37.69414 
-16.33822 -11.70228 29.07231 
-16.37848 11.74897 29.18055 
-0.00363 -19.36455 30.72590 
0.00000 0.00000 35.78670 
0.00363 19.36455 30.72590 
16.37848 -11.74897 29.18055 
16.33822 11.70228 29.07231 
0.00000 0.00000 -0.10000 
CELLS 233 698
2 0 1
2 0 2
2 0 3
2 1 3
2 1 4
2 2 3
2 2 5
2 3 4
2 3 5
2 3 6
2 4 6
2 5 6
2 7 8
2 7 9
2 7 10
2 8 10
2 8 11
2 9 10
2 9 12
2 10 11
2 10 12
2 10 13
2 11 13
2 12 13
2 14 15
2 14 16
2 14 17
2 15 17
2 15 18
2 16 17
2 16 19
2 17 18
2 17 19
2 17 20
2 18 20
2 19 20
2 21 22
2 21 23
2 21 24
2 22 24
2 22 25
2 23 24
2 23 26
2 24 25
2 24 26
2 24 27
2 25 27
2 26 27
2 28 29
2 28 30
2 28 31
2 29 31
2 29 32
2 30 31
2 30 33
2 31 32
2 31 33
2 31 34
2 32 34
2 33 34
2 0 1
2 0 2
2 0 3
2 0 7
2 0 8
2 0 9
2 0 10
2 1 3
2 1 4
2 1 7
2 1 8
2 1 10
2 1 11
2 2 3
2 2 5
2 2 7
2 2 9
2 2 10
2 2 12
2 3 4
2 3 5
2 3 6
2 3 7
2 3 8
2 3 9
2 3 10
2 3 11
2 3 12
2 3 13
2 4 6
2 4 8
2 4 10
2 4 11
2 4 13
2 5 6
2 5 9
2 5 10
2 5 12
2 5 13
2 6 10
2 6 11
2 6 12
2 6 13
2 7 8
2 7 9
2 7 10
2 7 14
2 7 15
2 7 16
2 7 17
2 8 10
2 8 11
2 8 14
2 8 15
2 8 17
2 8 18
2 9 10
2 9 12
2 9 14
2 9 16
2 9 17
2 9 19
2 10 11
2 10 12
2 10 13
2 10 14
2 10 15
2 10 16
2 10 17
2 10 18
2 10 19
2 10 20
2 11 13
2 11 15
2 11 17
2 11 18
2 11 20
2 12 13
2 12 16
2 12 17
2 12 19
2 12 20
2 13 17
2 13 18
2 13 19
2 13 20
2 14 15
2 14 16
2 14 17
2 14 21
2 14 22
2 14 23
2 14 24
2 15 17
2 15 18
2 15 21
2 15 22
2 15 24
2 15 25
2 16 17
2 16 19
2 16 21
2 16 23
2 16 24
2 16 26
2 17 18
2 17 19
2 17 20
2 17 21
2 17 22
2 17 23
2 17 24
2 17 25
2 17 26
2 17 27
2 18 20
2 18 22
2 18 24
2 18 25
2 18 27
2 19 20
2 19 23
2 19 24
2 19 26
2 19 27
2 20 24
2 20 25
2 20 26
2 20 27
2 21 22
2 21 23
2 21 24
2 21 28
2 21 29
2 21 30
2 21 31
2 22 24
2 22 25
2 22 28
2 22 29
2 22 31
2 22 32
2 23 24
2 23 26
2 23 28
2 23 30
2 23 31
2 23 33
2 24 25
2 24 26
2 24 27
2 24 28
2 24 29
2 24 30
2 24 31
2 24 32
2 24 33
2 24 34
2 25 27
2 25 29
2 25 31
2 25 32
2 25 34
2 26 27
2 26 30
2 26 31
2 26 33
2 26 34
2 27 31
2 27 32
2 27 33
2 27 34
1 35
CELL_TYPES 233
3
3
3
3
3
3
3
3
3
3
3
3
3
3
3
3
3
3
3
3
3
3
3
3
3
3
3
3
3
3
3
3
3
3
3
3
3
3
3
3
3
3
3
3
3
3
3
3
3
3
3
3
3
3
3
3
3
3
3
3
3
3
3
3
3
3
3
3
3
3
3
3
3
3
3
3
3
3
3
3
3
3
3
3
3
3
3
3
3
3
3
3
3
3
3
3
3
3
3
3
3
3
3
3
3
3
3
3
3
3
3
3
3
3
3
3
3
3
3
3
3
3
3
3
3
3
3
3
3
3
3
3
3
3
3
3
3
3
3
3
3
3
3
3
3
3
3
3
3
3
3
3
3
3
3
3
3
3
3
3
3
3
3
3
3
3
3
3
3
3
3
3
3
3
3
3
3
3
3
3
3
3
3
3
3
3
3
3
3
3
3
3
3
3
3
3
3
3
3
3
3
3
3
3
3
3
3
3
3
3
3
3
3
3
3
3
3
3
3
3
3
3
3
3
3
3
3
3
3
3
3
3
1
CELL_DATA 233
SCALARS Strain double 1
LOOKUP_TABLE default
-0.02480
-0.09557
0.05580
0.05795
-0.09605
0.01670
-0.09605
0.01670
0.05795
0.05580
-0.09557
-0.02480
-0.00486
0.01269
0.10740
0.10691
0.01337
0.04089
0.01337
0.04089
0.10691
0.10740
0.01269
-0.00486
0.01073
0.13851
0.12846
0.12769
0.13917
0.12370
0.13917
0.12370
0.12769
0.12846
0.13851
0.01073
-0.00783
0.08122
0.10382
0.10336
0.08175
0.01326
0.08175
0.01326
0.10336
0.10382
0.08122
-0.00783
0.00758
0.12184
0.03881
0.03994
0.12269
-0.02753
0.12269
-0.02753
0.03994
0.03881
0.12184
0.00758
-0.02161
0.03066
-0.00271
0.05445
-0.00946
0.01517
0.00320
-0.00067
0.03011
-0.01101
0.02952
0.00336
0.01423
0.01117
0.03011
0.00393
0.05962
0.02493
0.00348
0.01117
-0.00067
-0.00271
-0.02844
-0.02836
-0.02496
-0.00361
-0.02496
-0.02836
-0.02844
0.03066
0.00348
0.02493
0.05962
0.00393
-0.02161
0.01423
0.00336
0.02952
-0.01101
0.00320
0.01517
-0.00946
0.05445
-0.00411
-0.01702
-0.02574
0.08345
0.00169
-0.02728
-0.01995
-0.02617
-0.01635
0.00051
0.07155
-0.02105
-0.02743
-0.01407
-0.01635
-0.01854
0.11737
0.00321
-0.01834
-0.01407
-0.02617
-0.02574
-0.03672
-0.03748
-0.04183
0.07327
-0.04183
-0.03748
-0.03672
-0.01702
-0.01834
0.00321
0.11737
-0.01854
-0.00411
-0.02743
-0.02105
0.07155
0.00051
-0.01995
-0.02728
0.00169
0.08345
-0.00436
-0.05100
-0.04585
0.08826
0.00213
-0.03716
-0.03717
-0.04650
-0.05045
0.00231
0.08315
-0.03759
-0.03641
-0.04472
-0.05045
-0.01860
0.06265
-0.02539
-0.01901
-0.04472
-0.04650
-0.04585
-0.02816
-0.02915
-0.00774
-0.01334
-0.00774
-0.02915
-0.02816
-0.05100
-0.01901
-0.02539
0.06265
-0.01860
-0.00436
-0.03641
-0.03759
0.08315
0.00231
-0.03717
-0.03716
0.00213
0.08826
-0.00783
-0.03061
-0.03292
0.11311
0.01395
-0.03800
-0.03299
-0.03332
-0.03013
0.01525
0.10788
-0.03233
-0.03673
0.00228
-0.03013
-0.04932
0.11698
0.01790
-0.05065
0.00228
-0.03332
-0.03292
-0.04705
-0.04798
-0.00558
0.08786
-0.00558
-0.04798
-0.04705
-0.03061
-0.05065
0.01790
0.11698
-0.04932
-0.00783
-0.03673
-0.03233
0.10788
0.01525
-0.03299
-0.03800
0.01395
0.11311
0.10000
