# vtk DataFile Version 3.0
Point representing Sub_cellular elem model
ASCII

DATASET UNSTRUCTURED_GRID
POINTS 36 float
-39.86372 -22.63823 64.22980 
-39.89701 22.76030 62.79327 
0.13509 -42.63849 69.78606 
-0.00000 0.00000 77.77963 
-0.13509 42.63849 69.78606 
39.89701 -22.76030 62.79327 
39.86372 22.63823 64.22980 
-32.21118 -20.82551 56.62330 
-32.13315 20.75374 56.17419 
-0.01027 -35.23717 61.01979 
0.00000 0.00000 67.61997 
0.01027 35.23717 61.01979 
32.13315 -20.75374 56.17419 
32.21118 20.82551 56.62330 
-26.16908 -17.65850 47.33534 
-26.11420 17.59993 47.24859 
-0.03960 -28.64805 50.65867 
0.00000 0.00000 56.16860 
0.03960 28.64805 50.65867 
26.11420 -17.59993 47.24859 
26.16908 17.65850 47.33534 
-21.67535 -14.42578 36.98537 
-21.65281 14.41387 37.01070 
-0.03020 -25.43926 39.93354 
0.00000 0.00000 46.37512 
0.03020 25.43926 39.93354 
21.65281 -14.41387 37.01070 
21.67535 14.42578 36.98537 
-13.27338 -11.61935 27.90876 
-13.28127 11.63636 27.98308 
-0.02356 -18.03859 29.41003 
0.00000 0.00000 33.59907 
0.02356 18.03859 29.41003 
13.28127 -11.63636 27.98308 
13.27338 11.61935 27.90876 
0.00000 0.00000 -0.10000 
CELLS 233 698
2 0 1
2 0 2
2 0 3
2 1 3
2 1 4
2 2 3
2 2 5
2 3 4
2 3 5
2 3 6
2 4 6
2 5 6
2 7 8
2 7 9
2 7 10
2 8 10
2 8 11
2 9 10
2 9 12
2 10 11
2 10 12
2 10 13
2 11 13
2 12 13
2 14 15
2 14 16
2 14 17
2 15 17
2 15 18
2 16 17
2 16 19
2 17 18
2 17 19
2 17 20
2 18 20
2 19 20
2 21 22
2 21 23
2 21 24
2 22 24
2 22 25
2 23 24
2 23 26
2 24 25
2 24 26
2 24 27
2 25 27
2 26 27
2 28 29
2 28 30
2 28 31
2 29 31
2 29 32
2 30 31
2 30 33
2 31 32
2 31 33
2 31 34
2 32 34
2 33 34
2 0 1
2 0 2
2 0 3
2 0 7
2 0 8
2 0 9
2 0 10
2 1 3
2 1 4
2 1 7
2 1 8
2 1 10
2 1 11
2 2 3
2 2 5
2 2 7
2 2 9
2 2 10
2 2 12
2 3 4
2 3 5
2 3 6
2 3 7
2 3 8
2 3 9
2 3 10
2 3 11
2 3 12
2 3 13
2 4 6
2 4 8
2 4 10
2 4 11
2 4 13
2 5 6
2 5 9
2 5 10
2 5 12
2 5 13
2 6 10
2 6 11
2 6 12
2 6 13
2 7 8
2 7 9
2 7 10
2 7 14
2 7 15
2 7 16
2 7 17
2 8 10
2 8 11
2 8 14
2 8 15
2 8 17
2 8 18
2 9 10
2 9 12
2 9 14
2 9 16
2 9 17
2 9 19
2 10 11
2 10 12
2 10 13
2 10 14
2 10 15
2 10 16
2 10 17
2 10 18
2 10 19
2 10 20
2 11 13
2 11 15
2 11 17
2 11 18
2 11 20
2 12 13
2 12 16
2 12 17
2 12 19
2 12 20
2 13 17
2 13 18
2 13 19
2 13 20
2 14 15
2 14 16
2 14 17
2 14 21
2 14 22
2 14 23
2 14 24
2 15 17
2 15 18
2 15 21
2 15 22
2 15 24
2 15 25
2 16 17
2 16 19
2 16 21
2 16 23
2 16 24
2 16 26
2 17 18
2 17 19
2 17 20
2 17 21
2 17 22
2 17 23
2 17 24
2 17 25
2 17 26
2 17 27
2 18 20
2 18 22
2 18 24
2 18 25
2 18 27
2 19 20
2 19 23
2 19 24
2 19 26
2 19 27
2 20 24
2 20 25
2 20 26
2 20 27
2 21 22
2 21 23
2 21 24
2 21 28
2 21 29
2 21 30
2 21 31
2 22 24
2 22 25
2 22 28
2 22 29
2 22 31
2 22 32
2 23 24
2 23 26
2 23 28
2 23 30
2 23 31
2 23 33
2 24 25
2 24 26
2 24 27
2 24 28
2 24 29
2 24 30
2 24 31
2 24 32
2 24 33
2 24 34
2 25 27
2 25 29
2 25 31
2 25 32
2 25 34
2 26 27
2 26 30
2 26 31
2 26 33
2 26 34
2 27 31
2 27 32
2 27 33
2 27 34
1 35
CELL_TYPES 233
3
3
3
3
3
3
3
3
3
3
3
3
3
3
3
3
3
3
3
3
3
3
3
3
3
3
3
3
3
3
3
3
3
3
3
3
3
3
3
3
3
3
3
3
3
3
3
3
3
3
3
3
3
3
3
3
3
3
3
3
3
3
3
3
3
3
3
3
3
3
3
3
3
3
3
3
3
3
3
3
3
3
3
3
3
3
3
3
3
3
3
3
3
3
3
3
3
3
3
3
3
3
3
3
3
3
3
3
3
3
3
3
3
3
3
3
3
3
3
3
3
3
3
3
3
3
3
3
3
3
3
3
3
3
3
3
3
3
3
3
3
3
3
3
3
3
3
3
3
3
3
3
3
3
3
3
3
3
3
3
3
3
3
3
3
3
3
3
3
3
3
3
3
3
3
3
3
3
3
3
3
3
3
3
3
3
3
3
3
3
3
3
3
3
3
3
3
3
3
3
3
3
3
3
3
3
3
3
3
3
3
3
3
3
3
3
3
3
3
3
3
3
3
3
3
3
3
3
3
3
3
3
1
CELL_DATA 233
SCALARS Strain double 1
LOOKUP_TABLE default
-0.01088
-0.15084
0.09219
0.08369
-0.14959
0.01479
-0.14959
0.01479
0.08369
0.09219
-0.15084
-0.01088
0.00179
0.04519
0.20111
0.19867
0.04517
0.09098
0.04517
0.09098
0.19867
0.20111
0.04519
0.00179
0.02157
0.30336
0.25851
0.25912
0.30240
0.23848
0.30240
0.23848
0.25912
0.25851
0.30336
0.02157
-0.00365
0.15739
0.19899
0.19905
0.15748
0.01538
0.15748
0.01538
0.19905
0.19899
0.15739
-0.00365
-0.01168
0.33414
0.12676
0.12703
0.33626
-0.03192
0.33626
-0.03192
0.12703
0.12676
0.33414
-0.01168
-0.05366
0.06174
-0.00402
0.09410
-0.02390
0.02597
0.00144
0.00665
0.06024
-0.02649
0.03979
0.00617
0.02424
0.02209
0.06024
0.00771
0.14738
0.04489
0.00555
0.02209
0.00665
-0.00402
-0.04570
-0.04292
-0.04503
0.01597
-0.04503
-0.04292
-0.04570
0.06174
0.00555
0.04489
0.14738
0.00771
-0.05366
0.02424
0.00617
0.03979
-0.02649
0.00144
0.02597
-0.02390
0.09410
-0.00561
-0.03858
-0.04577
0.15240
0.00358
-0.05424
-0.03804
-0.04515
-0.03762
-0.00030
0.12178
-0.04073
-0.05589
-0.03052
-0.03762
-0.03407
0.22789
-0.00005
-0.03299
-0.03052
-0.04515
-0.04577
-0.05898
-0.05945
-0.06406
0.14514
-0.06406
-0.05945
-0.05898
-0.03858
-0.03299
-0.00005
0.22789
-0.03407
-0.00561
-0.05589
-0.04073
0.12178
-0.00030
-0.03804
-0.05424
0.00358
0.15240
-0.01059
-0.09433
-0.08008
0.17373
0.00259
-0.06876
-0.06850
-0.08153
-0.09258
0.00044
0.16133
-0.07088
-0.06880
-0.07426
-0.09258
-0.03510
0.11948
-0.04544
-0.03392
-0.07426
-0.08153
-0.08008
-0.04619
-0.04723
-0.00550
-0.02065
-0.00550
-0.04723
-0.04619
-0.09433
-0.03392
-0.04544
0.11948
-0.03510
-0.01059
-0.06880
-0.07088
0.16133
0.00044
-0.06850
-0.06876
0.00259
0.17373
-0.02090
-0.06079
-0.06033
0.26829
0.02834
-0.07930
-0.06322
-0.06143
-0.05942
0.02837
0.26213
-0.06400
-0.07799
0.00746
-0.05942
-0.10376
0.28652
0.03943
-0.10414
0.00746
-0.06143
-0.06033
-0.08884
-0.09033
-0.01818
0.27760
-0.01818
-0.09033
-0.08884
-0.06079
-0.10414
0.03943
0.28652
-0.10376
-0.02090
-0.07799
-0.06400
0.26213
0.02837
-0.06322
-0.07930
0.02834
0.26829
0.10000
