# vtk DataFile Version 3.0
Point representing Sub_cellular elem model
ASCII

DATASET UNSTRUCTURED_GRID
POINTS 36 float
-39.91855 -22.91450 64.27847 
-39.78424 22.88811 62.53682 
0.12268 -42.79964 71.00533 
-0.00000 0.00000 77.07616 
-0.12268 42.79964 71.00533 
39.78424 -22.88811 62.53682 
39.91855 22.91450 64.27847 
-32.05137 -20.80049 56.92506 
-31.92321 20.67280 56.43078 
-0.02462 -35.51587 61.65530 
-0.00000 0.00000 67.35494 
0.02462 35.51587 61.65530 
31.92321 -20.67280 56.43078 
32.05137 20.80049 56.92506 
-25.73420 -17.64142 47.56598 
-25.66927 17.58465 47.49213 
-0.04505 -28.30702 50.96640 
-0.00000 0.00000 55.69443 
0.04505 28.30702 50.96640 
25.66927 -17.58465 47.49213 
25.73420 17.64142 47.56598 
-21.45152 -14.48684 36.89190 
-21.42629 14.49322 36.94056 
-0.03582 -25.42869 39.70248 
-0.00000 0.00000 45.49981 
0.03582 25.42869 39.70248 
21.42629 -14.49322 36.94056 
21.45152 14.48684 36.89190 
-13.55499 -11.74410 27.47105 
-13.57416 11.78665 27.57932 
-0.02904 -18.71760 28.90406 
-0.00000 0.00000 33.42679 
0.02904 18.71760 28.90406 
13.57416 -11.78665 27.57932 
13.55499 11.74410 27.47105 
0.00000 0.00000 -0.10000 
CELLS 233 698
2 0 1
2 0 2
2 0 3
2 1 3
2 1 4
2 2 3
2 2 5
2 3 4
2 3 5
2 3 6
2 4 6
2 5 6
2 7 8
2 7 9
2 7 10
2 8 10
2 8 11
2 9 10
2 9 12
2 10 11
2 10 12
2 10 13
2 11 13
2 12 13
2 14 15
2 14 16
2 14 17
2 15 17
2 15 18
2 16 17
2 16 19
2 17 18
2 17 19
2 17 20
2 18 20
2 19 20
2 21 22
2 21 23
2 21 24
2 22 24
2 22 25
2 23 24
2 23 26
2 24 25
2 24 26
2 24 27
2 25 27
2 26 27
2 28 29
2 28 30
2 28 31
2 29 31
2 29 32
2 30 31
2 30 33
2 31 32
2 31 33
2 31 34
2 32 34
2 33 34
2 0 1
2 0 2
2 0 3
2 0 7
2 0 8
2 0 9
2 0 10
2 1 3
2 1 4
2 1 7
2 1 8
2 1 10
2 1 11
2 2 3
2 2 5
2 2 7
2 2 9
2 2 10
2 2 12
2 3 4
2 3 5
2 3 6
2 3 7
2 3 8
2 3 9
2 3 10
2 3 11
2 3 12
2 3 13
2 4 6
2 4 8
2 4 10
2 4 11
2 4 13
2 5 6
2 5 9
2 5 10
2 5 12
2 5 13
2 6 10
2 6 11
2 6 12
2 6 13
2 7 8
2 7 9
2 7 10
2 7 14
2 7 15
2 7 16
2 7 17
2 8 10
2 8 11
2 8 14
2 8 15
2 8 17
2 8 18
2 9 10
2 9 12
2 9 14
2 9 16
2 9 17
2 9 19
2 10 11
2 10 12
2 10 13
2 10 14
2 10 15
2 10 16
2 10 17
2 10 18
2 10 19
2 10 20
2 11 13
2 11 15
2 11 17
2 11 18
2 11 20
2 12 13
2 12 16
2 12 17
2 12 19
2 12 20
2 13 17
2 13 18
2 13 19
2 13 20
2 14 15
2 14 16
2 14 17
2 14 21
2 14 22
2 14 23
2 14 24
2 15 17
2 15 18
2 15 21
2 15 22
2 15 24
2 15 25
2 16 17
2 16 19
2 16 21
2 16 23
2 16 24
2 16 26
2 17 18
2 17 19
2 17 20
2 17 21
2 17 22
2 17 23
2 17 24
2 17 25
2 17 26
2 17 27
2 18 20
2 18 22
2 18 24
2 18 25
2 18 27
2 19 20
2 19 23
2 19 24
2 19 26
2 19 27
2 20 24
2 20 25
2 20 26
2 20 27
2 21 22
2 21 23
2 21 24
2 21 28
2 21 29
2 21 30
2 21 31
2 22 24
2 22 25
2 22 28
2 22 29
2 22 31
2 22 32
2 23 24
2 23 26
2 23 28
2 23 30
2 23 31
2 23 33
2 24 25
2 24 26
2 24 27
2 24 28
2 24 29
2 24 30
2 24 31
2 24 32
2 24 33
2 24 34
2 25 27
2 25 29
2 25 31
2 25 32
2 25 34
2 26 27
2 26 30
2 26 31
2 26 33
2 26 34
2 27 31
2 27 32
2 27 33
2 27 34
1 35
CELL_TYPES 233
3
3
3
3
3
3
3
3
3
3
3
3
3
3
3
3
3
3
3
3
3
3
3
3
3
3
3
3
3
3
3
3
3
3
3
3
3
3
3
3
3
3
3
3
3
3
3
3
3
3
3
3
3
3
3
3
3
3
3
3
3
3
3
3
3
3
3
3
3
3
3
3
3
3
3
3
3
3
3
3
3
3
3
3
3
3
3
3
3
3
3
3
3
3
3
3
3
3
3
3
3
3
3
3
3
3
3
3
3
3
3
3
3
3
3
3
3
3
3
3
3
3
3
3
3
3
3
3
3
3
3
3
3
3
3
3
3
3
3
3
3
3
3
3
3
3
3
3
3
3
3
3
3
3
3
3
3
3
3
3
3
3
3
3
3
3
3
3
3
3
3
3
3
3
3
3
3
3
3
3
3
3
3
3
3
3
3
3
3
3
3
3
3
3
3
3
3
3
3
3
3
3
3
3
3
3
3
3
3
3
3
3
3
3
3
3
3
3
3
3
3
3
3
3
3
3
3
3
3
3
3
3
1
CELL_DATA 233
SCALARS Strain double 1
LOOKUP_TABLE default
-0.05149
-0.17512
0.12556
0.13433
-0.17568
0.03019
-0.17568
0.03019
0.13433
0.12556
-0.17512
-0.05149
-0.00967
0.02441
0.26453
0.26335
0.02589
0.09322
0.02589
0.09322
0.26335
0.26453
0.02441
-0.00967
0.02031
0.36272
0.33532
0.33266
0.36533
0.32536
0.36533
0.32536
0.33266
0.33532
0.36272
0.02031
-0.01614
0.18549
0.24910
0.24764
0.18708
0.02447
0.18708
0.02447
0.24764
0.24910
0.18549
-0.01614
0.01099
0.34901
0.09444
0.09481
0.35249
-0.06435
0.35249
-0.06435
0.09481
0.09444
0.34901
0.01099
-0.04502
0.06518
-0.00464
0.09742
-0.01957
0.02593
0.00497
0.00312
0.06447
-0.02574
0.01974
0.00540
0.02236
0.01848
0.06447
0.01424
0.18532
0.05129
0.01303
0.01848
0.00312
-0.00464
-0.05893
-0.05725
-0.05238
-0.02788
-0.05238
-0.05725
-0.05893
0.06518
0.01303
0.05129
0.18532
0.01424
-0.04502
0.02236
0.00540
0.01974
-0.02574
0.00497
0.02593
-0.01957
0.09742
-0.00813
-0.03831
-0.05283
0.17251
0.00407
-0.06074
-0.04132
-0.05371
-0.03693
-0.00166
0.13379
-0.04607
-0.06333
-0.02726
-0.03693
-0.03471
0.28927
0.01241
-0.03336
-0.02726
-0.05371
-0.05283
-0.07347
-0.07429
-0.08047
0.16605
-0.08047
-0.07429
-0.07347
-0.03831
-0.03336
0.01241
0.28927
-0.03471
-0.00813
-0.06333
-0.04607
0.13379
-0.00166
-0.04132
-0.06074
0.00407
0.17251
-0.01149
-0.11077
-0.09524
0.19259
0.00625
-0.07795
-0.07780
-0.09704
-0.10907
0.00394
0.17854
-0.08046
-0.07790
-0.08929
-0.10907
-0.04075
0.16258
-0.04994
-0.04005
-0.08929
-0.09704
-0.09524
-0.05643
-0.05769
-0.01009
0.01946
-0.01009
-0.05769
-0.05643
-0.11077
-0.04005
-0.04994
0.16258
-0.04075
-0.01149
-0.07790
-0.08046
0.17854
0.00394
-0.07780
-0.07795
0.00625
0.19259
-0.01614
-0.07045
-0.07390
0.25950
0.03349
-0.07811
-0.06823
-0.07498
-0.06920
0.03407
0.25147
-0.06861
-0.07630
0.00128
-0.06920
-0.09618
0.27140
0.03847
-0.09734
0.00128
-0.07498
-0.07390
-0.09269
-0.09436
-0.00817
0.20730
-0.00817
-0.09436
-0.09269
-0.07045
-0.09734
0.03847
0.27140
-0.09618
-0.01614
-0.07630
-0.06861
0.25147
0.03407
-0.06823
-0.07811
0.03349
0.25950
0.10000
