# vtk DataFile Version 3.0
Point representing Sub_cellular elem model
ASCII

DATASET UNSTRUCTURED_GRID
POINTS 36 float
-39.73589 -22.81741 63.95698 
-39.78715 22.92735 62.94005 
0.09866 -42.36336 68.99824 
0.00000 0.00000 77.88686 
-0.09866 42.36336 68.99824 
39.78715 -22.92735 62.94005 
39.73589 22.81741 63.95698 
-32.46699 -20.83581 56.25363 
-32.41438 20.78265 55.94202 
-0.00983 -35.28692 60.43236 
0.00000 0.00000 67.66603 
0.00983 35.28692 60.43236 
32.41438 -20.78265 55.94202 
32.46699 20.83581 56.25363 
-26.56603 -17.67985 47.18014 
-26.52726 17.63357 47.13038 
-0.03048 -28.90798 50.47482 
0.00000 0.00000 56.42378 
0.03048 28.90798 50.47482 
26.52726 -17.63357 47.13038 
26.56603 17.67985 47.18014 
-21.97202 -14.44776 37.15740 
-21.95829 14.43744 37.18953 
-0.02280 -25.42359 40.13491 
0.00000 0.00000 46.75624 
0.02280 25.42359 40.13491 
21.95829 -14.43744 37.18953 
21.97202 14.44776 37.15740 
-13.78231 -11.60712 28.32277 
-13.79804 11.62275 28.39251 
-0.01763 -18.16855 29.90902 
0.00000 0.00000 34.18094 
0.01763 18.16855 29.90902 
13.79804 -11.62275 28.39251 
13.78231 11.60712 28.32277 
0.00000 0.00000 -0.10000 
CELLS 233 698
2 0 1
2 0 2
2 0 3
2 1 3
2 1 4
2 2 3
2 2 5
2 3 4
2 3 5
2 3 6
2 4 6
2 5 6
2 7 8
2 7 9
2 7 10
2 8 10
2 8 11
2 9 10
2 9 12
2 10 11
2 10 12
2 10 13
2 11 13
2 12 13
2 14 15
2 14 16
2 14 17
2 15 17
2 15 18
2 16 17
2 16 19
2 17 18
2 17 19
2 17 20
2 18 20
2 19 20
2 21 22
2 21 23
2 21 24
2 22 24
2 22 25
2 23 24
2 23 26
2 24 25
2 24 26
2 24 27
2 25 27
2 26 27
2 28 29
2 28 30
2 28 31
2 29 31
2 29 32
2 30 31
2 30 33
2 31 32
2 31 33
2 31 34
2 32 34
2 33 34
2 0 1
2 0 2
2 0 3
2 0 7
2 0 8
2 0 9
2 0 10
2 1 3
2 1 4
2 1 7
2 1 8
2 1 10
2 1 11
2 2 3
2 2 5
2 2 7
2 2 9
2 2 10
2 2 12
2 3 4
2 3 5
2 3 6
2 3 7
2 3 8
2 3 9
2 3 10
2 3 11
2 3 12
2 3 13
2 4 6
2 4 8
2 4 10
2 4 11
2 4 13
2 5 6
2 5 9
2 5 10
2 5 12
2 5 13
2 6 10
2 6 11
2 6 12
2 6 13
2 7 8
2 7 9
2 7 10
2 7 14
2 7 15
2 7 16
2 7 17
2 8 10
2 8 11
2 8 14
2 8 15
2 8 17
2 8 18
2 9 10
2 9 12
2 9 14
2 9 16
2 9 17
2 9 19
2 10 11
2 10 12
2 10 13
2 10 14
2 10 15
2 10 16
2 10 17
2 10 18
2 10 19
2 10 20
2 11 13
2 11 15
2 11 17
2 11 18
2 11 20
2 12 13
2 12 16
2 12 17
2 12 19
2 12 20
2 13 17
2 13 18
2 13 19
2 13 20
2 14 15
2 14 16
2 14 17
2 14 21
2 14 22
2 14 23
2 14 24
2 15 17
2 15 18
2 15 21
2 15 22
2 15 24
2 15 25
2 16 17
2 16 19
2 16 21
2 16 23
2 16 24
2 16 26
2 17 18
2 17 19
2 17 20
2 17 21
2 17 22
2 17 23
2 17 24
2 17 25
2 17 26
2 17 27
2 18 20
2 18 22
2 18 24
2 18 25
2 18 27
2 19 20
2 19 23
2 19 24
2 19 26
2 19 27
2 20 24
2 20 25
2 20 26
2 20 27
2 21 22
2 21 23
2 21 24
2 21 28
2 21 29
2 21 30
2 21 31
2 22 24
2 22 25
2 22 28
2 22 29
2 22 31
2 22 32
2 23 24
2 23 26
2 23 28
2 23 30
2 23 31
2 23 33
2 24 25
2 24 26
2 24 27
2 24 28
2 24 29
2 24 30
2 24 31
2 24 32
2 24 33
2 24 34
2 25 27
2 25 29
2 25 31
2 25 32
2 25 34
2 26 27
2 26 30
2 26 31
2 26 33
2 26 34
2 27 31
2 27 32
2 27 33
2 27 34
1 35
CELL_TYPES 233
3
3
3
3
3
3
3
3
3
3
3
3
3
3
3
3
3
3
3
3
3
3
3
3
3
3
3
3
3
3
3
3
3
3
3
3
3
3
3
3
3
3
3
3
3
3
3
3
3
3
3
3
3
3
3
3
3
3
3
3
3
3
3
3
3
3
3
3
3
3
3
3
3
3
3
3
3
3
3
3
3
3
3
3
3
3
3
3
3
3
3
3
3
3
3
3
3
3
3
3
3
3
3
3
3
3
3
3
3
3
3
3
3
3
3
3
3
3
3
3
3
3
3
3
3
3
3
3
3
3
3
3
3
3
3
3
3
3
3
3
3
3
3
3
3
3
3
3
3
3
3
3
3
3
3
3
3
3
3
3
3
3
3
3
3
3
3
3
3
3
3
3
3
3
3
3
3
3
3
3
3
3
3
3
3
3
3
3
3
3
3
3
3
3
3
3
3
3
3
3
3
3
3
3
3
3
3
3
3
3
3
3
3
3
3
3
3
3
3
3
3
3
3
3
3
3
3
3
3
3
3
3
1
CELL_DATA 233
SCALARS Strain double 1
LOOKUP_TABLE default
-0.00240
-0.12781
0.07031
0.06195
-0.12675
0.00991
-0.12675
0.00991
0.06195
0.07031
-0.12781
-0.00240
0.00295
0.04104
0.15781
0.15648
0.04068
0.07179
0.04068
0.07179
0.15648
0.15781
0.04104
0.00295
0.01829
0.24313
0.20788
0.20897
0.24181
0.19148
0.24181
0.19148
0.20897
0.20788
0.24313
0.01829
-0.00208
0.13135
0.16313
0.16348
0.13105
0.01435
0.13105
0.01435
0.16348
0.16313
0.13135
-0.00208
-0.01278
0.27575
0.11648
0.11697
0.27659
-0.02435
0.27659
-0.02435
0.11697
0.11648
0.27575
-0.01278
-0.04668
0.05215
-0.00218
0.07752
-0.02116
0.02267
0.00149
0.00615
0.05093
-0.02245
0.03889
0.00568
0.02173
0.01984
0.05093
0.00504
0.11114
0.03732
0.00329
0.01984
0.00615
-0.00218
-0.03645
-0.03449
-0.03651
0.02208
-0.03651
-0.03449
-0.03645
0.05215
0.00329
0.03732
0.11114
0.00504
-0.04668
0.02173
0.00568
0.03889
-0.02245
0.00149
0.02267
-0.02116
0.07752
-0.00470
-0.03258
-0.03792
0.12743
0.00259
-0.04637
-0.03257
-0.03745
-0.03178
0.00006
0.10553
-0.03433
-0.04724
-0.02590
-0.03178
-0.02986
0.18256
-0.00161
-0.02907
-0.02590
-0.03745
-0.03792
-0.04904
-0.04959
-0.05447
0.12423
-0.05447
-0.04959
-0.04904
-0.03258
-0.02907
-0.00161
0.18256
-0.02986
-0.00470
-0.04724
-0.03433
0.10553
0.00006
-0.03257
-0.04637
0.00259
0.12743
-0.00905
-0.07972
-0.06770
0.14894
0.00126
-0.05972
-0.05877
-0.06888
-0.07832
-0.00011
0.13978
-0.06050
-0.05950
-0.06345
-0.07832
-0.02919
0.09112
-0.03952
-0.02834
-0.06345
-0.06888
-0.06770
-0.03857
-0.03954
-0.00498
-0.03325
-0.00498
-0.03954
-0.03857
-0.07972
-0.02834
-0.03952
0.09112
-0.02919
-0.00905
-0.05950
-0.06050
0.13978
-0.00011
-0.05877
-0.05972
0.00126
0.14894
-0.01936
-0.05096
-0.04963
0.23771
0.02373
-0.07153
-0.05579
-0.05055
-0.04984
0.02403
0.23249
-0.05627
-0.07027
0.00860
-0.04984
-0.09609
0.25381
0.03529
-0.09642
0.00860
-0.05055
-0.04963
-0.08031
-0.08153
-0.01760
0.25753
-0.01760
-0.08153
-0.08031
-0.05096
-0.09642
0.03529
0.25381
-0.09609
-0.01936
-0.07027
-0.05627
0.23249
0.02403
-0.05579
-0.07153
0.02373
0.23771
0.10000
