# vtk DataFile Version 3.0
Point representing Sub_cellular elem model
ASCII

DATASET UNSTRUCTURED_GRID
POINTS 36 float
-39.63875 -22.93807 63.75997 
-39.69540 23.03972 62.96233 
0.07945 -42.16395 68.53902 
0.00000 0.00000 77.97370 
-0.07945 42.16395 68.53902 
39.69540 -23.03972 62.96233 
39.63875 22.93807 63.75997 
-32.63254 -20.84497 56.01038 
-32.59211 20.80152 55.76889 
-0.00913 -35.32005 60.05644 
0.00000 0.00000 67.72270 
0.00913 35.32005 60.05644 
32.59211 -20.80152 55.76889 
32.63254 20.84497 56.01038 
-26.82952 -17.69404 47.08163 
-26.79876 17.65374 47.04768 
-0.02557 -29.08259 50.35183 
0.00000 0.00000 56.61227 
0.02557 29.08259 50.35183 
26.79876 -17.65374 47.04768 
26.82952 17.69404 47.08163 
-22.16922 -14.46313 37.27677 
-22.15927 14.45266 37.30830 
-0.01862 -25.40931 40.26842 
0.00000 0.00000 47.01098 
0.01862 25.40931 40.26842 
22.15927 -14.45266 37.30830 
22.16922 14.46313 37.27677 
-14.12478 -11.59879 28.59927 
-14.14242 11.61134 28.66136 
-0.01487 -18.25241 30.23707 
0.00000 0.00000 34.56505 
0.01487 18.25241 30.23707 
14.14242 -11.61134 28.66136 
14.12478 11.59879 28.59927 
0.00000 0.00000 -0.10000 
CELLS 233 698
2 0 1
2 0 2
2 0 3
2 1 3
2 1 4
2 2 3
2 2 5
2 3 4
2 3 5
2 3 6
2 4 6
2 5 6
2 7 8
2 7 9
2 7 10
2 8 10
2 8 11
2 9 10
2 9 12
2 10 11
2 10 12
2 10 13
2 11 13
2 12 13
2 14 15
2 14 16
2 14 17
2 15 17
2 15 18
2 16 17
2 16 19
2 17 18
2 17 19
2 17 20
2 18 20
2 19 20
2 21 22
2 21 23
2 21 24
2 22 24
2 22 25
2 23 24
2 23 26
2 24 25
2 24 26
2 24 27
2 25 27
2 26 27
2 28 29
2 28 30
2 28 31
2 29 31
2 29 32
2 30 31
2 30 33
2 31 32
2 31 33
2 31 34
2 32 34
2 33 34
2 0 1
2 0 2
2 0 3
2 0 7
2 0 8
2 0 9
2 0 10
2 1 3
2 1 4
2 1 7
2 1 8
2 1 10
2 1 11
2 2 3
2 2 5
2 2 7
2 2 9
2 2 10
2 2 12
2 3 4
2 3 5
2 3 6
2 3 7
2 3 8
2 3 9
2 3 10
2 3 11
2 3 12
2 3 13
2 4 6
2 4 8
2 4 10
2 4 11
2 4 13
2 5 6
2 5 9
2 5 10
2 5 12
2 5 13
2 6 10
2 6 11
2 6 12
2 6 13
2 7 8
2 7 9
2 7 10
2 7 14
2 7 15
2 7 16
2 7 17
2 8 10
2 8 11
2 8 14
2 8 15
2 8 17
2 8 18
2 9 10
2 9 12
2 9 14
2 9 16
2 9 17
2 9 19
2 10 11
2 10 12
2 10 13
2 10 14
2 10 15
2 10 16
2 10 17
2 10 18
2 10 19
2 10 20
2 11 13
2 11 15
2 11 17
2 11 18
2 11 20
2 12 13
2 12 16
2 12 17
2 12 19
2 12 20
2 13 17
2 13 18
2 13 19
2 13 20
2 14 15
2 14 16
2 14 17
2 14 21
2 14 22
2 14 23
2 14 24
2 15 17
2 15 18
2 15 21
2 15 22
2 15 24
2 15 25
2 16 17
2 16 19
2 16 21
2 16 23
2 16 24
2 16 26
2 17 18
2 17 19
2 17 20
2 17 21
2 17 22
2 17 23
2 17 24
2 17 25
2 17 26
2 17 27
2 18 20
2 18 22
2 18 24
2 18 25
2 18 27
2 19 20
2 19 23
2 19 24
2 19 26
2 19 27
2 20 24
2 20 25
2 20 26
2 20 27
2 21 22
2 21 23
2 21 24
2 21 28
2 21 29
2 21 30
2 21 31
2 22 24
2 22 25
2 22 28
2 22 29
2 22 31
2 22 32
2 23 24
2 23 26
2 23 28
2 23 30
2 23 31
2 23 33
2 24 25
2 24 26
2 24 27
2 24 28
2 24 29
2 24 30
2 24 31
2 24 32
2 24 33
2 24 34
2 25 27
2 25 29
2 25 31
2 25 32
2 25 34
2 26 27
2 26 30
2 26 31
2 26 33
2 26 34
2 27 31
2 27 32
2 27 33
2 27 34
1 35
CELL_TYPES 233
3
3
3
3
3
3
3
3
3
3
3
3
3
3
3
3
3
3
3
3
3
3
3
3
3
3
3
3
3
3
3
3
3
3
3
3
3
3
3
3
3
3
3
3
3
3
3
3
3
3
3
3
3
3
3
3
3
3
3
3
3
3
3
3
3
3
3
3
3
3
3
3
3
3
3
3
3
3
3
3
3
3
3
3
3
3
3
3
3
3
3
3
3
3
3
3
3
3
3
3
3
3
3
3
3
3
3
3
3
3
3
3
3
3
3
3
3
3
3
3
3
3
3
3
3
3
3
3
3
3
3
3
3
3
3
3
3
3
3
3
3
3
3
3
3
3
3
3
3
3
3
3
3
3
3
3
3
3
3
3
3
3
3
3
3
3
3
3
3
3
3
3
3
3
3
3
3
3
3
3
3
3
3
3
3
3
3
3
3
3
3
3
3
3
3
3
3
3
3
3
3
3
3
3
3
3
3
3
3
3
3
3
3
3
3
3
3
3
3
3
3
3
3
3
3
3
3
3
3
3
3
3
1
CELL_DATA 233
SCALARS Strain double 1
LOOKUP_TABLE default
0.00340
-0.11112
0.05602
0.04798
-0.11017
0.00629
-0.11017
0.00629
0.04798
0.05602
-0.11112
0.00340
0.00378
0.03811
0.13058
0.12990
0.03754
0.05942
0.03754
0.05942
0.12990
0.13058
0.03811
0.00378
0.01600
0.20599
0.17647
0.17779
0.20452
0.16228
0.20452
0.16228
0.17779
0.17647
0.20599
0.01600
-0.00102
0.11435
0.14024
0.14074
0.11382
0.01353
0.11382
0.01353
0.14074
0.14024
0.11435
-0.00102
-0.01362
0.24053
0.10982
0.11032
0.24070
-0.01944
0.24070
-0.01944
0.11032
0.10982
0.24053
-0.01362
-0.04192
0.04573
-0.00092
0.06547
-0.01926
0.02017
0.00144
0.00611
0.04474
-0.01988
0.03543
0.00525
0.01963
0.01797
0.04474
0.00360
0.08996
0.03212
0.00209
0.01797
0.00611
-0.00092
-0.03018
-0.02866
-0.03071
0.02510
-0.03071
-0.02866
-0.03018
0.04573
0.00209
0.03212
0.08996
0.00360
-0.04192
0.01963
0.00525
0.03543
-0.01988
0.00144
0.02017
-0.01926
0.06547
-0.00404
-0.02865
-0.03256
0.11052
0.00200
-0.04124
-0.02884
-0.03219
-0.02796
0.00014
0.09330
-0.03017
-0.04176
-0.02261
-0.02796
-0.02682
0.15363
-0.00235
-0.02615
-0.02261
-0.03219
-0.03256
-0.04214
-0.04269
-0.04767
0.11104
-0.04767
-0.04269
-0.04214
-0.02865
-0.02615
-0.00235
0.15363
-0.02682
-0.00404
-0.04176
-0.03017
0.09330
0.00014
-0.02884
-0.04124
0.00200
0.11052
-0.00808
-0.07004
-0.05931
0.13266
0.00047
-0.05360
-0.05214
-0.06033
-0.06883
-0.00055
0.12528
-0.05355
-0.05331
-0.05599
-0.06883
-0.02520
0.07316
-0.03531
-0.02447
-0.05599
-0.06033
-0.05931
-0.03324
-0.03412
-0.00440
-0.03987
-0.00440
-0.03412
-0.03324
-0.07004
-0.02447
-0.03531
0.07316
-0.02520
-0.00808
-0.05331
-0.05355
0.12528
-0.00055
-0.05214
-0.05360
0.00047
0.13266
-0.01832
-0.04452
-0.04252
0.21745
0.02076
-0.06617
-0.05065
-0.04334
-0.04356
0.02110
0.21291
-0.05104
-0.06499
0.00925
-0.04356
-0.09077
0.23227
0.03251
-0.09098
0.00925
-0.04334
-0.04252
-0.07440
-0.07543
-0.01713
0.24459
-0.01713
-0.07543
-0.07440
-0.04452
-0.09098
0.03251
0.23227
-0.09077
-0.01832
-0.06499
-0.05104
0.21291
0.02110
-0.05065
-0.06617
0.02076
0.21745
0.10000
