# vtk DataFile Version 3.0
Point representing Sub_cellular elem model
ASCII

DATASET UNSTRUCTURED_GRID
POINTS 36 float
-39.35512 -23.57325 63.55345 
-39.33449 23.56231 63.21049 
0.02130 -41.70443 67.48280 
-0.00000 0.00000 77.27828 
-0.02130 41.70443 67.48280 
39.33449 -23.56231 63.21049 
39.35512 23.57325 63.55345 
-33.18783 -20.85395 55.55715 
-33.16621 20.82060 55.49011 
-0.01141 -35.58349 58.98766 
-0.00000 0.00000 67.30077 
0.01141 35.58349 58.98766 
33.16621 -20.82060 55.49011 
33.18783 20.85395 55.55715 
-27.64544 -17.76039 46.95012 
-27.63900 17.75234 46.98504 
-0.01115 -29.54858 49.84742 
-0.00000 0.00000 56.70046 
0.01115 29.54858 49.84742 
27.63900 -17.75234 46.98504 
27.64544 17.76039 46.95012 
-22.94028 -14.62476 37.83110 
-22.94754 14.63789 37.90273 
-0.00896 -25.25979 40.25931 
-0.00000 0.00000 46.83846 
0.00896 25.25979 40.25931 
22.94754 -14.63789 37.90273 
22.94028 14.62476 37.83110 
-16.75986 -11.69281 29.31115 
-16.79742 11.73559 29.41018 
-0.00187 -19.44766 30.97309 
-0.00000 0.00000 36.12185 
0.00187 19.44766 30.97309 
16.79742 -11.73559 29.41018 
16.75986 11.69281 29.31115 
0.00000 0.00000 -0.10000 
CELLS 233 698
2 0 1
2 0 2
2 0 3
2 1 3
2 1 4
2 2 3
2 2 5
2 3 4
2 3 5
2 3 6
2 4 6
2 5 6
2 7 8
2 7 9
2 7 10
2 8 10
2 8 11
2 9 10
2 9 12
2 10 11
2 10 12
2 10 13
2 11 13
2 12 13
2 14 15
2 14 16
2 14 17
2 15 17
2 15 18
2 16 17
2 16 19
2 17 18
2 17 19
2 17 20
2 18 20
2 19 20
2 21 22
2 21 23
2 21 24
2 22 24
2 22 25
2 23 24
2 23 26
2 24 25
2 24 26
2 24 27
2 25 27
2 26 27
2 28 29
2 28 30
2 28 31
2 29 31
2 29 32
2 30 31
2 30 33
2 31 32
2 31 33
2 31 34
2 32 34
2 33 34
2 0 1
2 0 2
2 0 3
2 0 7
2 0 8
2 0 9
2 0 10
2 1 3
2 1 4
2 1 7
2 1 8
2 1 10
2 1 11
2 2 3
2 2 5
2 2 7
2 2 9
2 2 10
2 2 12
2 3 4
2 3 5
2 3 6
2 3 7
2 3 8
2 3 9
2 3 10
2 3 11
2 3 12
2 3 13
2 4 6
2 4 8
2 4 10
2 4 11
2 4 13
2 5 6
2 5 9
2 5 10
2 5 12
2 5 13
2 6 10
2 6 11
2 6 12
2 6 13
2 7 8
2 7 9
2 7 10
2 7 14
2 7 15
2 7 16
2 7 17
2 8 10
2 8 11
2 8 14
2 8 15
2 8 17
2 8 18
2 9 10
2 9 12
2 9 14
2 9 16
2 9 17
2 9 19
2 10 11
2 10 12
2 10 13
2 10 14
2 10 15
2 10 16
2 10 17
2 10 18
2 10 19
2 10 20
2 11 13
2 11 15
2 11 17
2 11 18
2 11 20
2 12 13
2 12 16
2 12 17
2 12 19
2 12 20
2 13 17
2 13 18
2 13 19
2 13 20
2 14 15
2 14 16
2 14 17
2 14 21
2 14 22
2 14 23
2 14 24
2 15 17
2 15 18
2 15 21
2 15 22
2 15 24
2 15 25
2 16 17
2 16 19
2 16 21
2 16 23
2 16 24
2 16 26
2 17 18
2 17 19
2 17 20
2 17 21
2 17 22
2 17 23
2 17 24
2 17 25
2 17 26
2 17 27
2 18 20
2 18 22
2 18 24
2 18 25
2 18 27
2 19 20
2 19 23
2 19 24
2 19 26
2 19 27
2 20 24
2 20 25
2 20 26
2 20 27
2 21 22
2 21 23
2 21 24
2 21 28
2 21 29
2 21 30
2 21 31
2 22 24
2 22 25
2 22 28
2 22 29
2 22 31
2 22 32
2 23 24
2 23 26
2 23 28
2 23 30
2 23 31
2 23 33
2 24 25
2 24 26
2 24 27
2 24 28
2 24 29
2 24 30
2 24 31
2 24 32
2 24 33
2 24 34
2 25 27
2 25 29
2 25 31
2 25 32
2 25 34
2 26 27
2 26 30
2 26 31
2 26 33
2 26 34
2 27 31
2 27 32
2 27 33
2 27 34
1 35
CELL_TYPES 233
3
3
3
3
3
3
3
3
3
3
3
3
3
3
3
3
3
3
3
3
3
3
3
3
3
3
3
3
3
3
3
3
3
3
3
3
3
3
3
3
3
3
3
3
3
3
3
3
3
3
3
3
3
3
3
3
3
3
3
3
3
3
3
3
3
3
3
3
3
3
3
3
3
3
3
3
3
3
3
3
3
3
3
3
3
3
3
3
3
3
3
3
3
3
3
3
3
3
3
3
3
3
3
3
3
3
3
3
3
3
3
3
3
3
3
3
3
3
3
3
3
3
3
3
3
3
3
3
3
3
3
3
3
3
3
3
3
3
3
3
3
3
3
3
3
3
3
3
3
3
3
3
3
3
3
3
3
3
3
3
3
3
3
3
3
3
3
3
3
3
3
3
3
3
3
3
3
3
3
3
3
3
3
3
3
3
3
3
3
3
3
3
3
3
3
3
3
3
3
3
3
3
3
3
3
3
3
3
3
3
3
3
3
3
3
3
3
3
3
3
3
3
3
3
3
3
3
3
3
3
3
3
1
CELL_DATA 233
SCALARS Strain double 1
LOOKUP_TABLE default
-0.02058
-0.08113
0.04587
0.04755
-0.08156
0.01391
-0.08156
0.01391
0.04755
0.04587
-0.08113
-0.02058
-0.00401
0.01067
0.08724
0.08684
0.01125
0.03358
0.01125
0.03358
0.08684
0.08724
0.01067
-0.00401
0.00908
0.11172
0.10361
0.10299
0.11225
0.09964
0.11225
0.09964
0.10299
0.10361
0.11172
0.00908
-0.00654
0.06666
0.08469
0.08432
0.06710
0.01122
0.06710
0.01122
0.08432
0.08469
0.06666
-0.00654
0.00659
0.09732
0.03159
0.03262
0.09797
-0.02255
0.09797
-0.02255
0.03262
0.03159
0.09732
0.00659
-0.01791
0.02554
-0.00234
0.04580
-0.00784
0.01295
0.00273
-0.00073
0.02507
-0.00903
0.02552
0.00286
0.01219
0.00932
0.02507
0.00308
0.04707
0.02069
0.00270
0.00932
-0.00073
-0.00234
-0.02375
-0.02373
-0.02081
-0.00225
-0.02081
-0.02373
-0.02375
0.02554
0.00270
0.02069
0.04707
0.00308
-0.01791
0.01219
0.00286
0.02552
-0.00903
0.00273
0.01295
-0.00784
0.04580
-0.00339
-0.01399
-0.02149
0.06943
0.00143
-0.02255
-0.01666
-0.02186
-0.01343
0.00055
0.05972
-0.01751
-0.02260
-0.01181
-0.01343
-0.01557
0.09528
0.00241
-0.01543
-0.01181
-0.02186
-0.02149
-0.03075
-0.03142
-0.03522
0.06003
-0.03522
-0.03142
-0.03075
-0.01399
-0.01543
0.00241
0.09528
-0.01557
-0.00339
-0.02260
-0.01751
0.05972
0.00055
-0.01666
-0.02255
0.00143
0.06943
-0.00345
-0.04221
-0.03819
0.07297
0.00170
-0.03092
-0.03090
-0.03873
-0.04176
0.00195
0.06863
-0.03119
-0.03023
-0.03745
-0.04176
-0.01532
0.05036
-0.02123
-0.01573
-0.03745
-0.03873
-0.03819
-0.02354
-0.02442
-0.00680
-0.01380
-0.00680
-0.02442
-0.02354
-0.04221
-0.01573
-0.02123
0.05036
-0.01532
-0.00345
-0.03023
-0.03119
0.06863
0.00195
-0.03090
-0.03092
0.00170
0.07297
-0.00654
-0.02511
-0.02708
0.09264
0.01135
-0.03168
-0.02744
-0.02742
-0.02470
0.01254
0.08799
-0.02681
-0.03057
0.00210
-0.02470
-0.04142
0.09551
0.01486
-0.04262
0.00210
-0.02742
-0.02708
-0.03945
-0.04024
-0.00489
0.07166
-0.00489
-0.04024
-0.03945
-0.02511
-0.04262
0.01486
0.09551
-0.04142
-0.00654
-0.03057
-0.02681
0.08799
0.01254
-0.02744
-0.03168
0.01135
0.09264
0.10000
