# vtk DataFile Version 3.0
Point representing Sub_cellular elem model
ASCII

DATASET UNSTRUCTURED_GRID
POINTS 36 float
-40.03774 -22.30949 64.67826 
-39.95255 22.45212 61.85660 
0.26353 -43.02077 71.79876 
0.00000 0.00000 77.62280 
-0.26353 43.02077 71.79876 
39.95255 -22.45212 61.85660 
40.03774 22.30949 64.67826 
-31.69816 -20.83152 57.36989 
-31.52416 20.69872 56.46849 
-0.00802 -35.15346 62.25111 
0.00000 0.00000 67.66717 
0.00802 35.15346 62.25111 
31.52416 -20.69872 56.46849 
31.69816 20.83152 57.36989 
-25.41558 -17.62547 47.66937 
-25.30599 17.52391 47.44153 
-0.06848 -28.17344 51.01755 
0.00000 0.00000 55.78829 
0.06848 28.17344 51.01755 
25.30599 -17.52391 47.44153 
25.41558 17.62547 47.66937 
-21.11488 -14.38953 36.69167 
-21.06063 14.36580 36.67145 
-0.05112 -25.45271 39.55075 
0.00000 0.00000 45.66953 
0.05112 25.45271 39.55075 
21.06063 -14.36580 36.67145 
21.11488 14.38953 36.69167 
-12.33318 -11.64126 27.13735 
-12.30468 11.64843 27.19538 
-0.04305 -17.77760 28.45077 
0.00000 0.00000 32.49775 
0.04305 17.77760 28.45077 
12.30468 -11.64843 27.19538 
12.33318 11.64126 27.13735 
0.00000 0.00000 -0.10000 
CELLS 233 698
2 0 1
2 0 2
2 0 3
2 1 3
2 1 4
2 2 3
2 2 5
2 3 4
2 3 5
2 3 6
2 4 6
2 5 6
2 7 8
2 7 9
2 7 10
2 8 10
2 8 11
2 9 10
2 9 12
2 10 11
2 10 12
2 10 13
2 11 13
2 12 13
2 14 15
2 14 16
2 14 17
2 15 17
2 15 18
2 16 17
2 16 19
2 17 18
2 17 19
2 17 20
2 18 20
2 19 20
2 21 22
2 21 23
2 21 24
2 22 24
2 22 25
2 23 24
2 23 26
2 24 25
2 24 26
2 24 27
2 25 27
2 26 27
2 28 29
2 28 30
2 28 31
2 29 31
2 29 32
2 30 31
2 30 33
2 31 32
2 31 33
2 31 34
2 32 34
2 33 34
2 0 1
2 0 2
2 0 3
2 0 7
2 0 8
2 0 9
2 0 10
2 1 3
2 1 4
2 1 7
2 1 8
2 1 10
2 1 11
2 2 3
2 2 5
2 2 7
2 2 9
2 2 10
2 2 12
2 3 4
2 3 5
2 3 6
2 3 7
2 3 8
2 3 9
2 3 10
2 3 11
2 3 12
2 3 13
2 4 6
2 4 8
2 4 10
2 4 11
2 4 13
2 5 6
2 5 9
2 5 10
2 5 12
2 5 13
2 6 10
2 6 11
2 6 12
2 6 13
2 7 8
2 7 9
2 7 10
2 7 14
2 7 15
2 7 16
2 7 17
2 8 10
2 8 11
2 8 14
2 8 15
2 8 17
2 8 18
2 9 10
2 9 12
2 9 14
2 9 16
2 9 17
2 9 19
2 10 11
2 10 12
2 10 13
2 10 14
2 10 15
2 10 16
2 10 17
2 10 18
2 10 19
2 10 20
2 11 13
2 11 15
2 11 17
2 11 18
2 11 20
2 12 13
2 12 16
2 12 17
2 12 19
2 12 20
2 13 17
2 13 18
2 13 19
2 13 20
2 14 15
2 14 16
2 14 17
2 14 21
2 14 22
2 14 23
2 14 24
2 15 17
2 15 18
2 15 21
2 15 22
2 15 24
2 15 25
2 16 17
2 16 19
2 16 21
2 16 23
2 16 24
2 16 26
2 17 18
2 17 19
2 17 20
2 17 21
2 17 22
2 17 23
2 17 24
2 17 25
2 17 26
2 17 27
2 18 20
2 18 22
2 18 24
2 18 25
2 18 27
2 19 20
2 19 23
2 19 24
2 19 26
2 19 27
2 20 24
2 20 25
2 20 26
2 20 27
2 21 22
2 21 23
2 21 24
2 21 28
2 21 29
2 21 30
2 21 31
2 22 24
2 22 25
2 22 28
2 22 29
2 22 31
2 22 32
2 23 24
2 23 26
2 23 28
2 23 30
2 23 31
2 23 33
2 24 25
2 24 26
2 24 27
2 24 28
2 24 29
2 24 30
2 24 31
2 24 32
2 24 33
2 24 34
2 25 27
2 25 29
2 25 31
2 25 32
2 25 34
2 26 27
2 26 30
2 26 31
2 26 33
2 26 34
2 27 31
2 27 32
2 27 33
2 27 34
1 35
CELL_TYPES 233
3
3
3
3
3
3
3
3
3
3
3
3
3
3
3
3
3
3
3
3
3
3
3
3
3
3
3
3
3
3
3
3
3
3
3
3
3
3
3
3
3
3
3
3
3
3
3
3
3
3
3
3
3
3
3
3
3
3
3
3
3
3
3
3
3
3
3
3
3
3
3
3
3
3
3
3
3
3
3
3
3
3
3
3
3
3
3
3
3
3
3
3
3
3
3
3
3
3
3
3
3
3
3
3
3
3
3
3
3
3
3
3
3
3
3
3
3
3
3
3
3
3
3
3
3
3
3
3
3
3
3
3
3
3
3
3
3
3
3
3
3
3
3
3
3
3
3
3
3
3
3
3
3
3
3
3
3
3
3
3
3
3
3
3
3
3
3
3
3
3
3
3
3
3
3
3
3
3
3
3
3
3
3
3
3
3
3
3
3
3
3
3
3
3
3
3
3
3
3
3
3
3
3
3
3
3
3
3
3
3
3
3
3
3
3
3
3
3
3
3
3
3
3
3
3
3
3
3
3
3
3
3
1
CELL_DATA 233
SCALARS Strain double 1
LOOKUP_TABLE default
-0.02543
-0.18777
0.13425
0.12808
-0.18606
0.02040
-0.18606
0.02040
0.12808
0.13425
-0.18777
-0.02543
0.00035
0.05207
0.29107
0.28604
0.05275
0.12919
0.05275
0.12919
0.28604
0.29107
0.05207
0.00035
0.02737
0.43374
0.36685
0.36581
0.43443
0.33888
0.43443
0.33888
0.36581
0.36685
0.43374
0.02737
-0.00656
0.20792
0.27183
0.27101
0.20919
0.01688
0.20919
0.01688
0.27101
0.27183
0.20792
-0.00656
-0.01024
0.46663
0.14728
0.14614
0.47243
-0.04681
0.47243
-0.04681
0.14614
0.14728
0.46663
-0.01024
-0.06555
0.08067
-0.00771
0.11868
-0.02827
0.03060
0.00063
0.00976
0.07895
-0.03509
0.01559
0.00639
0.02626
0.02286
0.07895
0.01563
0.23744
0.05776
0.01221
0.02286
0.00976
-0.00771
-0.06325
-0.05800
-0.06100
-0.00444
-0.06100
-0.05800
-0.06325
0.08067
0.01221
0.05776
0.23744
0.01563
-0.06555
0.02626
0.00639
0.01559
-0.03509
0.00063
0.03060
-0.02827
0.11868
-0.00660
-0.05034
-0.06009
0.19937
0.00640
-0.06986
-0.04798
-0.05922
-0.04901
-0.00210
0.14119
-0.05413
-0.07455
-0.03814
-0.04901
-0.04029
0.32256
0.00482
-0.03802
-0.03814
-0.05922
-0.06009
-0.07638
-0.07637
-0.08000
0.18789
-0.08000
-0.07637
-0.07638
-0.05034
-0.03802
0.00482
0.32256
-0.04029
-0.00660
-0.07455
-0.05413
0.14119
-0.00210
-0.04798
-0.06986
0.00640
0.19937
-0.01362
-0.12235
-0.10267
0.22260
0.00594
-0.08525
-0.08592
-0.10504
-0.11941
0.00084
0.19996
-0.09068
-0.08669
-0.09325
-0.11941
-0.04594
0.17851
-0.05500
-0.04326
-0.09325
-0.10504
-0.10267
-0.05920
-0.06022
-0.00509
0.01188
-0.00509
-0.06022
-0.05920
-0.12235
-0.04326
-0.05500
0.17851
-0.04594
-0.01362
-0.08669
-0.09068
0.19996
0.00084
-0.08592
-0.08525
0.00594
0.22260
-0.02377
-0.08002
-0.08054
0.32649
0.03761
-0.09291
-0.07615
-0.08217
-0.07788
0.03617
0.31852
-0.07832
-0.09189
0.00500
-0.07788
-0.11725
0.34951
0.04720
-0.11709
0.00500
-0.08217
-0.08054
-0.10372
-0.10563
-0.01872
0.31718
-0.01872
-0.10563
-0.10372
-0.08002
-0.11709
0.04720
0.34951
-0.11725
-0.02377
-0.09189
-0.07832
0.31852
0.03617
-0.07615
-0.09291
0.03761
0.32649
0.10000
