# vtk DataFile Version 3.0
Point representing Sub_cellular elem model
ASCII

DATASET UNSTRUCTURED_GRID
POINTS 36 float
-38.99802 -23.87310 63.05082 
-38.99217 23.87038 62.96821 
0.00512 -41.09488 66.44551 
-0.00000 -0.00000 77.51847 
-0.00512 41.09488 66.44551 
38.99217 -23.87038 62.96821 
38.99802 23.87310 63.05082 
-33.64437 -20.89253 54.97303 
-33.64014 20.88370 54.96192 
-0.00333 -35.58278 57.95933 
-0.00000 -0.00000 67.52038 
0.00333 35.58278 57.95933 
33.64014 -20.88370 54.96192 
33.64437 20.89253 54.97303 
-28.48074 -17.80364 46.73188 
-28.48104 17.80230 46.74889 
-0.00264 -30.09170 49.29337 
-0.00000 -0.00000 57.35365 
0.00264 30.09170 49.29337 
28.48104 -17.80230 46.74889 
28.48074 17.80364 46.73188 
-23.57179 -14.69589 38.33637 
-23.57615 14.70098 38.36551 
-0.00197 -25.12391 40.46452 
-0.00000 -0.00000 47.42429 
0.00197 25.12391 40.46452 
23.57615 -14.70098 38.36551 
23.57179 14.69589 38.33637 
-18.21506 -11.65522 30.13221 
-18.23017 11.67182 30.17083 
0.00064 -19.70086 31.74801 
-0.00000 0.00000 37.22581 
-0.00064 19.70086 31.74801 
18.23017 -11.67182 30.17083 
18.21506 11.65522 30.13221 
0.00000 0.00000 -0.10000 
CELLS 233 698
2 0 1
2 0 2
2 0 3
2 1 3
2 1 4
2 2 3
2 2 5
2 3 4
2 3 5
2 3 6
2 4 6
2 5 6
2 7 8
2 7 9
2 7 10
2 8 10
2 8 11
2 9 10
2 9 12
2 10 11
2 10 12
2 10 13
2 11 13
2 12 13
2 14 15
2 14 16
2 14 17
2 15 17
2 15 18
2 16 17
2 16 19
2 17 18
2 17 19
2 17 20
2 18 20
2 19 20
2 21 22
2 21 23
2 21 24
2 22 24
2 22 25
2 23 24
2 23 26
2 24 25
2 24 26
2 24 27
2 25 27
2 26 27
2 28 29
2 28 30
2 28 31
2 29 31
2 29 32
2 30 31
2 30 33
2 31 32
2 31 33
2 31 34
2 32 34
2 33 34
2 0 1
2 0 2
2 0 3
2 0 7
2 0 8
2 0 9
2 0 10
2 1 3
2 1 4
2 1 7
2 1 8
2 1 10
2 1 11
2 2 3
2 2 5
2 2 7
2 2 9
2 2 10
2 2 12
2 3 4
2 3 5
2 3 6
2 3 7
2 3 8
2 3 9
2 3 10
2 3 11
2 3 12
2 3 13
2 4 6
2 4 8
2 4 10
2 4 11
2 4 13
2 5 6
2 5 9
2 5 10
2 5 12
2 5 13
2 6 10
2 6 11
2 6 12
2 6 13
2 7 8
2 7 9
2 7 10
2 7 14
2 7 15
2 7 16
2 7 17
2 8 10
2 8 11
2 8 14
2 8 15
2 8 17
2 8 18
2 9 10
2 9 12
2 9 14
2 9 16
2 9 17
2 9 19
2 10 11
2 10 12
2 10 13
2 10 14
2 10 15
2 10 16
2 10 17
2 10 18
2 10 19
2 10 20
2 11 13
2 11 15
2 11 17
2 11 18
2 11 20
2 12 13
2 12 16
2 12 17
2 12 19
2 12 20
2 13 17
2 13 18
2 13 19
2 13 20
2 14 15
2 14 16
2 14 17
2 14 21
2 14 22
2 14 23
2 14 24
2 15 17
2 15 18
2 15 21
2 15 22
2 15 24
2 15 25
2 16 17
2 16 19
2 16 21
2 16 23
2 16 24
2 16 26
2 17 18
2 17 19
2 17 20
2 17 21
2 17 22
2 17 23
2 17 24
2 17 25
2 17 26
2 17 27
2 18 20
2 18 22
2 18 24
2 18 25
2 18 27
2 19 20
2 19 23
2 19 24
2 19 26
2 19 27
2 20 24
2 20 25
2 20 26
2 20 27
2 21 22
2 21 23
2 21 24
2 21 28
2 21 29
2 21 30
2 21 31
2 22 24
2 22 25
2 22 28
2 22 29
2 22 31
2 22 32
2 23 24
2 23 26
2 23 28
2 23 30
2 23 31
2 23 33
2 24 25
2 24 26
2 24 27
2 24 28
2 24 29
2 24 30
2 24 31
2 24 32
2 24 33
2 24 34
2 25 27
2 25 29
2 25 31
2 25 32
2 25 34
2 26 27
2 26 30
2 26 31
2 26 33
2 26 34
2 27 31
2 27 32
2 27 33
2 27 34
1 35
CELL_TYPES 233
3
3
3
3
3
3
3
3
3
3
3
3
3
3
3
3
3
3
3
3
3
3
3
3
3
3
3
3
3
3
3
3
3
3
3
3
3
3
3
3
3
3
3
3
3
3
3
3
3
3
3
3
3
3
3
3
3
3
3
3
3
3
3
3
3
3
3
3
3
3
3
3
3
3
3
3
3
3
3
3
3
3
3
3
3
3
3
3
3
3
3
3
3
3
3
3
3
3
3
3
3
3
3
3
3
3
3
3
3
3
3
3
3
3
3
3
3
3
3
3
3
3
3
3
3
3
3
3
3
3
3
3
3
3
3
3
3
3
3
3
3
3
3
3
3
3
3
3
3
3
3
3
3
3
3
3
3
3
3
3
3
3
3
3
3
3
3
3
3
3
3
3
3
3
3
3
3
3
3
3
3
3
3
3
3
3
3
3
3
3
3
3
3
3
3
3
3
3
3
3
3
3
3
3
3
3
3
3
3
3
3
3
3
3
3
3
3
3
3
3
3
3
3
3
3
3
3
3
3
3
3
3
1
CELL_DATA 233
SCALARS Strain double 1
LOOKUP_TABLE default
-0.00608
-0.02612
0.01320
0.01359
-0.02627
0.00411
-0.02627
0.00411
0.01359
0.01320
-0.02612
-0.00608
-0.00114
0.00331
0.02413
0.02402
0.00349
0.00966
0.00349
0.00966
0.02402
0.02413
0.00331
-0.00114
0.00289
0.03026
0.02805
0.02789
0.03040
0.02686
0.03040
0.02686
0.02789
0.02805
0.03026
0.00289
-0.00199
0.01907
0.02379
0.02369
0.01920
0.00357
0.01920
0.00357
0.02369
0.02379
0.01907
-0.00199
0.00223
0.02564
0.00885
0.00923
0.02579
-0.00651
0.02579
-0.00651
0.00923
0.00885
0.02564
0.00223
-0.00527
0.00771
-0.00078
0.01388
-0.00231
0.00422
0.00088
-0.00038
0.00755
-0.00257
0.00829
0.00092
0.00401
0.00275
0.00755
0.00076
0.01192
0.00610
0.00065
0.00275
-0.00038
-0.00078
-0.00721
-0.00725
-0.00625
-0.00019
-0.00625
-0.00725
-0.00721
0.00771
0.00065
0.00610
0.01192
0.00076
-0.00527
0.00401
0.00092
0.00829
-0.00257
0.00088
0.00422
-0.00231
0.01388
-0.00096
-0.00402
-0.00652
0.02039
0.00045
-0.00660
-0.00506
-0.00662
-0.00384
0.00029
0.01767
-0.00525
-0.00656
-0.00361
-0.00384
-0.00483
0.02592
0.00047
-0.00480
-0.00361
-0.00662
-0.00652
-0.00944
-0.00967
-0.01096
0.01667
-0.01096
-0.00967
-0.00944
-0.00402
-0.00480
0.00047
0.02592
-0.00483
-0.00096
-0.00656
-0.00525
0.01767
0.00029
-0.00506
-0.00660
0.00045
0.02039
-0.00084
-0.01242
-0.01147
0.02098
0.00041
-0.00924
-0.00921
-0.01163
-0.01229
0.00058
0.01959
-0.00923
-0.00898
-0.01144
-0.01229
-0.00449
0.01305
-0.00645
-0.00468
-0.01144
-0.01163
-0.01147
-0.00717
-0.00750
-0.00239
-0.00706
-0.00239
-0.00750
-0.00717
-0.01242
-0.00468
-0.00645
0.01305
-0.00449
-0.00084
-0.00898
-0.00923
0.01959
0.00058
-0.00921
-0.00924
0.00041
0.02098
-0.00199
-0.00716
-0.00777
0.02591
0.00310
-0.00949
-0.00815
-0.00787
-0.00704
0.00356
0.02425
-0.00788
-0.00911
0.00086
-0.00704
-0.01285
0.02658
0.00437
-0.01329
0.00086
-0.00787
-0.00777
-0.01212
-0.01238
-0.00177
0.01985
-0.00177
-0.01238
-0.01212
-0.00716
-0.01329
0.00437
0.02658
-0.01285
-0.00199
-0.00911
-0.00788
0.02425
0.00356
-0.00815
-0.00949
0.00310
0.02591
0.10000
