# vtk DataFile Version 3.0
Point representing Sub_cellular elem model
ASCII

DATASET UNSTRUCTURED_GRID
POINTS 36 float
-39.76011 -22.78552 64.00744 
-39.80921 22.89763 62.92513 
0.10433 -42.41437 69.12820 
0.00000 0.00000 77.86608 
-0.10433 42.41437 69.12820 
39.80921 -22.89763 62.92513 
39.76011 22.78552 64.00744 
-32.42240 -20.83362 56.31862 
-32.36599 20.77757 55.98580 
-0.00997 -35.27805 60.53416 
0.00000 0.00000 67.65450 
0.00997 35.27805 60.53416 
32.36599 -20.77757 55.98580 
32.42240 20.83362 56.31862 
-26.49593 -17.67604 47.20692 
-26.45470 17.62791 47.15186 
-0.03192 -28.86175 50.50736 
0.00000 0.00000 56.37615 
0.03192 28.86175 50.50736 
26.45470 -17.62791 47.15186 
26.49593 17.67604 47.20692 
-21.91958 -14.44377 37.12628 
-21.90458 14.43333 37.15788 
-0.02400 -25.42684 40.09932 
0.00000 0.00000 46.68859 
0.02400 25.42684 40.09932 
21.90458 -14.43333 37.15788 
21.91958 14.44377 37.12628 
-13.69181 -11.60931 28.24930 
-13.70659 11.62547 28.32044 
-0.01852 -18.14593 29.82118 
0.00000 0.00000 34.07829 
0.01852 18.14593 29.82118 
13.70659 -11.62547 28.32044 
13.69181 11.60931 28.24930 
0.00000 0.00000 -0.10000 
CELLS 233 698
2 0 1
2 0 2
2 0 3
2 1 3
2 1 4
2 2 3
2 2 5
2 3 4
2 3 5
2 3 6
2 4 6
2 5 6
2 7 8
2 7 9
2 7 10
2 8 10
2 8 11
2 9 10
2 9 12
2 10 11
2 10 12
2 10 13
2 11 13
2 12 13
2 14 15
2 14 16
2 14 17
2 15 17
2 15 18
2 16 17
2 16 19
2 17 18
2 17 19
2 17 20
2 18 20
2 19 20
2 21 22
2 21 23
2 21 24
2 22 24
2 22 25
2 23 24
2 23 26
2 24 25
2 24 26
2 24 27
2 25 27
2 26 27
2 28 29
2 28 30
2 28 31
2 29 31
2 29 32
2 30 31
2 30 33
2 31 32
2 31 33
2 31 34
2 32 34
2 33 34
2 0 1
2 0 2
2 0 3
2 0 7
2 0 8
2 0 9
2 0 10
2 1 3
2 1 4
2 1 7
2 1 8
2 1 10
2 1 11
2 2 3
2 2 5
2 2 7
2 2 9
2 2 10
2 2 12
2 3 4
2 3 5
2 3 6
2 3 7
2 3 8
2 3 9
2 3 10
2 3 11
2 3 12
2 3 13
2 4 6
2 4 8
2 4 10
2 4 11
2 4 13
2 5 6
2 5 9
2 5 10
2 5 12
2 5 13
2 6 10
2 6 11
2 6 12
2 6 13
2 7 8
2 7 9
2 7 10
2 7 14
2 7 15
2 7 16
2 7 17
2 8 10
2 8 11
2 8 14
2 8 15
2 8 17
2 8 18
2 9 10
2 9 12
2 9 14
2 9 16
2 9 17
2 9 19
2 10 11
2 10 12
2 10 13
2 10 14
2 10 15
2 10 16
2 10 17
2 10 18
2 10 19
2 10 20
2 11 13
2 11 15
2 11 17
2 11 18
2 11 20
2 12 13
2 12 16
2 12 17
2 12 19
2 12 20
2 13 17
2 13 18
2 13 19
2 13 20
2 14 15
2 14 16
2 14 17
2 14 21
2 14 22
2 14 23
2 14 24
2 15 17
2 15 18
2 15 21
2 15 22
2 15 24
2 15 25
2 16 17
2 16 19
2 16 21
2 16 23
2 16 24
2 16 26
2 17 18
2 17 19
2 17 20
2 17 21
2 17 22
2 17 23
2 17 24
2 17 25
2 17 26
2 17 27
2 18 20
2 18 22
2 18 24
2 18 25
2 18 27
2 19 20
2 19 23
2 19 24
2 19 26
2 19 27
2 20 24
2 20 25
2 20 26
2 20 27
2 21 22
2 21 23
2 21 24
2 21 28
2 21 29
2 21 30
2 21 31
2 22 24
2 22 25
2 22 28
2 22 29
2 22 31
2 22 32
2 23 24
2 23 26
2 23 28
2 23 30
2 23 31
2 23 33
2 24 25
2 24 26
2 24 27
2 24 28
2 24 29
2 24 30
2 24 31
2 24 32
2 24 33
2 24 34
2 25 27
2 25 29
2 25 31
2 25 32
2 25 34
2 26 27
2 26 30
2 26 31
2 26 33
2 26 34
2 27 31
2 27 32
2 27 33
2 27 34
1 35
CELL_TYPES 233
3
3
3
3
3
3
3
3
3
3
3
3
3
3
3
3
3
3
3
3
3
3
3
3
3
3
3
3
3
3
3
3
3
3
3
3
3
3
3
3
3
3
3
3
3
3
3
3
3
3
3
3
3
3
3
3
3
3
3
3
3
3
3
3
3
3
3
3
3
3
3
3
3
3
3
3
3
3
3
3
3
3
3
3
3
3
3
3
3
3
3
3
3
3
3
3
3
3
3
3
3
3
3
3
3
3
3
3
3
3
3
3
3
3
3
3
3
3
3
3
3
3
3
3
3
3
3
3
3
3
3
3
3
3
3
3
3
3
3
3
3
3
3
3
3
3
3
3
3
3
3
3
3
3
3
3
3
3
3
3
3
3
3
3
3
3
3
3
3
3
3
3
3
3
3
3
3
3
3
3
3
3
3
3
3
3
3
3
3
3
3
3
3
3
3
3
3
3
3
3
3
3
3
3
3
3
3
3
3
3
3
3
3
3
3
3
3
3
3
3
3
3
3
3
3
3
3
3
3
3
3
3
1
CELL_DATA 233
SCALARS Strain double 1
LOOKUP_TABLE default
-0.00392
-0.13206
0.07414
0.06572
-0.13096
0.01083
-0.13096
0.01083
0.06572
0.07414
-0.13206
-0.00392
0.00273
0.04179
0.16526
0.16374
0.04149
0.07513
0.04149
0.07513
0.16374
0.16526
0.04179
0.00273
0.01889
0.25338
0.21653
0.21754
0.25211
0.19951
0.25211
0.19951
0.21754
0.21653
0.25338
0.01889
-0.00236
0.13591
0.16934
0.16965
0.13567
0.01455
0.13567
0.01455
0.16965
0.16934
0.13591
-0.00236
-0.01257
0.28558
0.11827
0.11874
0.28662
-0.02568
0.28662
-0.02568
0.11874
0.11827
0.28558
-0.01257
-0.04793
0.05384
-0.00251
0.08060
-0.02166
0.02330
0.00150
0.00620
0.05257
-0.02314
0.03947
0.00578
0.02223
0.02030
0.05257
0.00547
0.11713
0.03868
0.00364
0.02030
0.00620
-0.00251
-0.03810
-0.03601
-0.03803
0.02116
-0.03803
-0.03601
-0.03810
0.05384
0.00364
0.03868
0.11713
0.00547
-0.04793
0.02223
0.00578
0.03947
-0.02314
0.00150
0.02330
-0.02166
0.08060
-0.00487
-0.03363
-0.03933
0.13188
0.00276
-0.04775
-0.03355
-0.03883
-0.03281
0.00002
0.10861
-0.03545
-0.04873
-0.02675
-0.03281
-0.03064
0.19041
-0.00137
-0.02981
-0.02675
-0.03883
-0.03933
-0.05084
-0.05138
-0.05622
0.12784
-0.05622
-0.05138
-0.05084
-0.03363
-0.02981
-0.00137
0.19041
-0.03064
-0.00487
-0.04873
-0.03545
0.10861
0.00002
-0.03355
-0.04775
0.00276
0.13188
-0.00931
-0.08229
-0.06991
0.15330
0.00148
-0.06133
-0.06051
-0.07113
-0.08084
0.00000
0.14363
-0.06233
-0.06114
-0.06539
-0.08084
-0.03024
0.09602
-0.04060
-0.02934
-0.06539
-0.07113
-0.06991
-0.03995
-0.04094
-0.00511
-0.03124
-0.00511
-0.04094
-0.03995
-0.08229
-0.02934
-0.04060
0.09602
-0.03024
-0.00931
-0.06114
-0.06233
0.14363
0.00000
-0.06051
-0.06133
0.00148
0.15330
-0.01963
-0.05268
-0.05152
0.24311
0.02454
-0.07293
-0.05713
-0.05247
-0.05152
0.02480
0.23771
-0.05765
-0.07165
0.00841
-0.05152
-0.09747
0.25957
0.03602
-0.09783
0.00841
-0.05247
-0.05152
-0.08185
-0.08312
-0.01772
0.26103
-0.01772
-0.08312
-0.08185
-0.05268
-0.09783
0.03602
0.25957
-0.09747
-0.01963
-0.07165
-0.05765
0.23771
0.02480
-0.05713
-0.07293
0.02454
0.24311
0.10000
