# vtk DataFile Version 3.0
Point representing Sub_cellular elem model
ASCII

DATASET UNSTRUCTURED_GRID
POINTS 36 float
-39.67891 -23.24298 63.99427 
-39.63196 23.22327 63.21623 
0.04958 -42.31597 68.89967 
-0.00000 0.00000 77.13425 
-0.04958 42.31597 68.89967 
39.63196 -23.22327 63.21623 
39.67891 23.24298 63.99427 
-32.65380 -20.81442 56.21365 
-32.59998 20.74763 56.02356 
-0.01896 -35.55396 60.20783 
-0.00000 0.00000 67.23134 
0.01896 35.55396 60.20783 
32.59998 -20.74763 56.02356 
32.65380 20.81442 56.21365 
-26.71439 -17.70154 47.22634 
-26.68995 17.67919 47.24186 
-0.02334 -28.93452 50.40404 
-0.00000 0.00000 56.12118 
0.02334 28.93452 50.40404 
26.68995 -17.67919 47.24186 
26.71439 17.70154 47.22634 
-22.22131 -14.55317 37.33728 
-22.22022 14.56804 37.41646 
-0.01922 -25.36460 39.99874 
-0.00000 0.00000 46.18249 
0.01922 25.36460 39.99874 
22.22022 -14.56804 37.41646 
22.22131 14.55317 37.33728 
-15.17654 -11.72408 28.40940 
-15.21688 11.77525 28.52955 
-0.01077 -19.11501 30.00261 
-0.00000 0.00000 34.83115 
0.01077 19.11501 30.00261 
15.21688 -11.77525 28.52955 
15.17654 11.72408 28.40940 
0.00000 0.00000 -0.10000 
CELLS 233 698
2 0 1
2 0 2
2 0 3
2 1 3
2 1 4
2 2 3
2 2 5
2 3 4
2 3 5
2 3 6
2 4 6
2 5 6
2 7 8
2 7 9
2 7 10
2 8 10
2 8 11
2 9 10
2 9 12
2 10 11
2 10 12
2 10 13
2 11 13
2 12 13
2 14 15
2 14 16
2 14 17
2 15 17
2 15 18
2 16 17
2 16 19
2 17 18
2 17 19
2 17 20
2 18 20
2 19 20
2 21 22
2 21 23
2 21 24
2 22 24
2 22 25
2 23 24
2 23 26
2 24 25
2 24 26
2 24 27
2 25 27
2 26 27
2 28 29
2 28 30
2 28 31
2 29 31
2 29 32
2 30 31
2 30 33
2 31 32
2 31 33
2 31 34
2 32 34
2 33 34
2 0 1
2 0 2
2 0 3
2 0 7
2 0 8
2 0 9
2 0 10
2 1 3
2 1 4
2 1 7
2 1 8
2 1 10
2 1 11
2 2 3
2 2 5
2 2 7
2 2 9
2 2 10
2 2 12
2 3 4
2 3 5
2 3 6
2 3 7
2 3 8
2 3 9
2 3 10
2 3 11
2 3 12
2 3 13
2 4 6
2 4 8
2 4 10
2 4 11
2 4 13
2 5 6
2 5 9
2 5 10
2 5 12
2 5 13
2 6 10
2 6 11
2 6 12
2 6 13
2 7 8
2 7 9
2 7 10
2 7 14
2 7 15
2 7 16
2 7 17
2 8 10
2 8 11
2 8 14
2 8 15
2 8 17
2 8 18
2 9 10
2 9 12
2 9 14
2 9 16
2 9 17
2 9 19
2 10 11
2 10 12
2 10 13
2 10 14
2 10 15
2 10 16
2 10 17
2 10 18
2 10 19
2 10 20
2 11 13
2 11 15
2 11 17
2 11 18
2 11 20
2 12 13
2 12 16
2 12 17
2 12 19
2 12 20
2 13 17
2 13 18
2 13 19
2 13 20
2 14 15
2 14 16
2 14 17
2 14 21
2 14 22
2 14 23
2 14 24
2 15 17
2 15 18
2 15 21
2 15 22
2 15 24
2 15 25
2 16 17
2 16 19
2 16 21
2 16 23
2 16 24
2 16 26
2 17 18
2 17 19
2 17 20
2 17 21
2 17 22
2 17 23
2 17 24
2 17 25
2 17 26
2 17 27
2 18 20
2 18 22
2 18 24
2 18 25
2 18 27
2 19 20
2 19 23
2 19 24
2 19 26
2 19 27
2 20 24
2 20 25
2 20 26
2 20 27
2 21 22
2 21 23
2 21 24
2 21 28
2 21 29
2 21 30
2 21 31
2 22 24
2 22 25
2 22 28
2 22 29
2 22 31
2 22 32
2 23 24
2 23 26
2 23 28
2 23 30
2 23 31
2 23 33
2 24 25
2 24 26
2 24 27
2 24 28
2 24 29
2 24 30
2 24 31
2 24 32
2 24 33
2 24 34
2 25 27
2 25 29
2 25 31
2 25 32
2 25 34
2 26 27
2 26 30
2 26 31
2 26 33
2 26 34
2 27 31
2 27 32
2 27 33
2 27 34
1 35
CELL_TYPES 233
3
3
3
3
3
3
3
3
3
3
3
3
3
3
3
3
3
3
3
3
3
3
3
3
3
3
3
3
3
3
3
3
3
3
3
3
3
3
3
3
3
3
3
3
3
3
3
3
3
3
3
3
3
3
3
3
3
3
3
3
3
3
3
3
3
3
3
3
3
3
3
3
3
3
3
3
3
3
3
3
3
3
3
3
3
3
3
3
3
3
3
3
3
3
3
3
3
3
3
3
3
3
3
3
3
3
3
3
3
3
3
3
3
3
3
3
3
3
3
3
3
3
3
3
3
3
3
3
3
3
3
3
3
3
3
3
3
3
3
3
3
3
3
3
3
3
3
3
3
3
3
3
3
3
3
3
3
3
3
3
3
3
3
3
3
3
3
3
3
3
3
3
3
3
3
3
3
3
3
3
3
3
3
3
3
3
3
3
3
3
3
3
3
3
3
3
3
3
3
3
3
3
3
3
3
3
3
3
3
3
3
3
3
3
3
3
3
3
3
3
3
3
3
3
3
3
3
3
3
3
3
3
1
CELL_DATA 233
SCALARS Strain double 1
LOOKUP_TABLE default
-0.03635
-0.13208
0.08413
0.08802
-0.13266
0.02383
-0.13266
0.02383
0.08802
0.08413
-0.13208
-0.03635
-0.00715
0.01796
0.16772
0.16697
0.01894
0.06189
0.01894
0.06189
0.16697
0.16772
0.01796
-0.00715
0.01497
0.22114
0.20496
0.20367
0.22228
0.19801
0.22228
0.19801
0.20367
0.20496
0.22114
0.01497
-0.01134
0.12308
0.16027
0.15952
0.12392
0.01841
0.12392
0.01841
0.15952
0.16027
0.12308
-0.01134
0.00964
0.20072
0.06029
0.06146
0.20231
-0.04207
0.20231
-0.04207
0.06146
0.06029
0.20072
0.00964
-0.03175
0.04472
-0.00356
0.07604
-0.01391
0.02055
0.00429
0.00001
0.04403
-0.01675
0.03591
0.00452
0.01892
0.01569
0.04403
0.00694
0.10126
0.03645
0.00627
0.01569
0.00001
-0.00356
-0.04115
-0.04073
-0.03627
-0.00971
-0.03627
-0.04073
-0.04115
0.04472
0.00627
0.03645
0.10126
0.00694
-0.03175
0.01892
0.00452
0.03591
-0.01675
0.00429
0.02055
-0.01391
0.07604
-0.00607
-0.02562
-0.03721
0.12133
0.00241
-0.04069
-0.02892
-0.03782
-0.02468
0.00007
0.10209
-0.03095
-0.04133
-0.01994
-0.02468
-0.02620
0.18293
0.00610
-0.02575
-0.01994
-0.03782
-0.03721
-0.05262
-0.05352
-0.05902
0.11102
-0.05902
-0.05352
-0.05262
-0.02562
-0.02575
0.00610
0.18293
-0.02620
-0.00607
-0.04133
-0.03095
0.10209
0.00007
-0.02892
-0.04069
0.00241
0.12133
-0.00716
-0.07555
-0.06671
0.13090
0.00351
-0.05428
-0.05435
-0.06772
-0.07468
0.00318
0.12337
-0.05530
-0.05352
-0.06407
-0.07468
-0.02783
0.10006
-0.03640
-0.02809
-0.06407
-0.06772
-0.06671
-0.04051
-0.04168
-0.00957
-0.00613
-0.00957
-0.04168
-0.04051
-0.07555
-0.02809
-0.03640
0.10006
-0.02783
-0.00716
-0.05352
-0.05530
0.12337
0.00318
-0.05435
-0.05428
0.00351
0.13090
-0.01134
-0.04646
-0.04952
0.17193
0.02156
-0.05513
-0.04808
-0.05014
-0.04575
0.02293
0.16544
-0.04755
-0.05352
0.00230
-0.04575
-0.07005
0.17890
0.02633
-0.07155
0.00230
-0.05014
-0.04952
-0.06712
-0.06837
-0.00706
0.13513
-0.00706
-0.06837
-0.06712
-0.04646
-0.07155
0.02633
0.17890
-0.07005
-0.01134
-0.05352
-0.04755
0.16544
0.02293
-0.04808
-0.05513
0.02156
0.17193
0.10000
