# vtk DataFile Version 3.0
Point representing Sub_cellular elem model
ASCII

DATASET UNSTRUCTURED_GRID
POINTS 36 float
-39.90864 -22.93176 64.26743 
-39.78300 22.90560 62.60597 
0.11600 -42.78028 70.86337 
-0.00000 0.00000 77.07862 
-0.11600 42.78028 70.86337 
39.78300 -22.90560 62.60597 
39.90864 22.93176 64.26743 
-32.08594 -20.79982 56.88375 
-31.96409 20.67682 56.41504 
-0.02445 -35.51769 61.56895 
-0.00000 0.00000 67.34281 
0.02445 35.51769 61.56895 
31.96409 -20.67682 56.41504 
32.08594 20.79982 56.88375 
-25.78819 -17.64427 47.54507 
-25.72655 17.59036 47.47935 
-0.04337 -28.34059 50.93531 
-0.00000 0.00000 55.71274 
0.04337 28.34059 50.93531 
25.72655 -17.59036 47.47935 
25.78819 17.64427 47.54507 
-21.49411 -14.49016 36.91406 
-21.47083 14.49746 36.96584 
-0.03463 -25.42627 39.71948 
-0.00000 0.00000 45.53681 
0.03463 25.42627 39.71948 
21.47083 -14.49746 36.96584 
21.49411 14.49016 36.91406 
-13.64282 -11.74332 27.52202 
-13.66408 11.78693 27.63202 
-0.02769 -18.74093 28.96627 
-0.00000 0.00000 33.50455 
0.02769 18.74093 28.96627 
13.66408 -11.78693 27.63202 
13.64282 11.74332 27.52202 
0.00000 0.00000 -0.10000 
CELLS 233 698
2 0 1
2 0 2
2 0 3
2 1 3
2 1 4
2 2 3
2 2 5
2 3 4
2 3 5
2 3 6
2 4 6
2 5 6
2 7 8
2 7 9
2 7 10
2 8 10
2 8 11
2 9 10
2 9 12
2 10 11
2 10 12
2 10 13
2 11 13
2 12 13
2 14 15
2 14 16
2 14 17
2 15 17
2 15 18
2 16 17
2 16 19
2 17 18
2 17 19
2 17 20
2 18 20
2 19 20
2 21 22
2 21 23
2 21 24
2 22 24
2 22 25
2 23 24
2 23 26
2 24 25
2 24 26
2 24 27
2 25 27
2 26 27
2 28 29
2 28 30
2 28 31
2 29 31
2 29 32
2 30 31
2 30 33
2 31 32
2 31 33
2 31 34
2 32 34
2 33 34
2 0 1
2 0 2
2 0 3
2 0 7
2 0 8
2 0 9
2 0 10
2 1 3
2 1 4
2 1 7
2 1 8
2 1 10
2 1 11
2 2 3
2 2 5
2 2 7
2 2 9
2 2 10
2 2 12
2 3 4
2 3 5
2 3 6
2 3 7
2 3 8
2 3 9
2 3 10
2 3 11
2 3 12
2 3 13
2 4 6
2 4 8
2 4 10
2 4 11
2 4 13
2 5 6
2 5 9
2 5 10
2 5 12
2 5 13
2 6 10
2 6 11
2 6 12
2 6 13
2 7 8
2 7 9
2 7 10
2 7 14
2 7 15
2 7 16
2 7 17
2 8 10
2 8 11
2 8 14
2 8 15
2 8 17
2 8 18
2 9 10
2 9 12
2 9 14
2 9 16
2 9 17
2 9 19
2 10 11
2 10 12
2 10 13
2 10 14
2 10 15
2 10 16
2 10 17
2 10 18
2 10 19
2 10 20
2 11 13
2 11 15
2 11 17
2 11 18
2 11 20
2 12 13
2 12 16
2 12 17
2 12 19
2 12 20
2 13 17
2 13 18
2 13 19
2 13 20
2 14 15
2 14 16
2 14 17
2 14 21
2 14 22
2 14 23
2 14 24
2 15 17
2 15 18
2 15 21
2 15 22
2 15 24
2 15 25
2 16 17
2 16 19
2 16 21
2 16 23
2 16 24
2 16 26
2 17 18
2 17 19
2 17 20
2 17 21
2 17 22
2 17 23
2 17 24
2 17 25
2 17 26
2 17 27
2 18 20
2 18 22
2 18 24
2 18 25
2 18 27
2 19 20
2 19 23
2 19 24
2 19 26
2 19 27
2 20 24
2 20 25
2 20 26
2 20 27
2 21 22
2 21 23
2 21 24
2 21 28
2 21 29
2 21 30
2 21 31
2 22 24
2 22 25
2 22 28
2 22 29
2 22 31
2 22 32
2 23 24
2 23 26
2 23 28
2 23 30
2 23 31
2 23 33
2 24 25
2 24 26
2 24 27
2 24 28
2 24 29
2 24 30
2 24 31
2 24 32
2 24 33
2 24 34
2 25 27
2 25 29
2 25 31
2 25 32
2 25 34
2 26 27
2 26 30
2 26 31
2 26 33
2 26 34
2 27 31
2 27 32
2 27 33
2 27 34
1 35
CELL_TYPES 233
3
3
3
3
3
3
3
3
3
3
3
3
3
3
3
3
3
3
3
3
3
3
3
3
3
3
3
3
3
3
3
3
3
3
3
3
3
3
3
3
3
3
3
3
3
3
3
3
3
3
3
3
3
3
3
3
3
3
3
3
3
3
3
3
3
3
3
3
3
3
3
3
3
3
3
3
3
3
3
3
3
3
3
3
3
3
3
3
3
3
3
3
3
3
3
3
3
3
3
3
3
3
3
3
3
3
3
3
3
3
3
3
3
3
3
3
3
3
3
3
3
3
3
3
3
3
3
3
3
3
3
3
3
3
3
3
3
3
3
3
3
3
3
3
3
3
3
3
3
3
3
3
3
3
3
3
3
3
3
3
3
3
3
3
3
3
3
3
3
3
3
3
3
3
3
3
3
3
3
3
3
3
3
3
3
3
3
3
3
3
3
3
3
3
3
3
3
3
3
3
3
3
3
3
3
3
3
3
3
3
3
3
3
3
3
3
3
3
3
3
3
3
3
3
3
3
3
3
3
3
3
3
1
CELL_DATA 233
SCALARS Strain double 1
LOOKUP_TABLE default
-0.05073
-0.17303
0.12328
0.13164
-0.17360
0.03003
-0.17360
0.03003
0.13164
0.12328
-0.17303
-0.05073
-0.00958
0.02409
0.25886
0.25771
0.02554
0.09146
0.02554
0.09146
0.25771
0.25886
0.02409
-0.00958
0.02003
0.35409
0.32740
0.32486
0.35658
0.31760
0.35658
0.31760
0.32486
0.32740
0.35409
0.02003
-0.01588
0.18198
0.24394
0.24254
0.18352
0.02417
0.18352
0.02417
0.24254
0.24394
0.18198
-0.01588
0.01097
0.33942
0.09243
0.09289
0.34275
-0.06308
0.34275
-0.06308
0.09289
0.09243
0.33942
0.01097
-0.04436
0.06400
-0.00456
0.09662
-0.01930
0.02570
0.00497
0.00285
0.06327
-0.02521
0.02191
0.00539
0.02229
0.01851
0.06327
0.01369
0.17963
0.05055
0.01253
0.01851
0.00285
-0.00456
-0.05793
-0.05636
-0.05147
-0.02642
-0.05147
-0.05636
-0.05793
0.06400
0.01253
0.05055
0.17963
0.01369
-0.04436
0.02229
0.00539
0.02191
-0.02521
0.00497
0.02570
-0.01930
0.09662
-0.00805
-0.03760
-0.05198
0.16974
0.00393
-0.05960
-0.04065
-0.05285
-0.03624
-0.00152
0.13260
-0.04518
-0.06201
-0.02689
-0.03624
-0.03434
0.28291
0.01198
-0.03306
-0.02689
-0.05285
-0.05198
-0.07238
-0.07321
-0.07938
0.16301
-0.07938
-0.07321
-0.07238
-0.03760
-0.03306
0.01198
0.28291
-0.03434
-0.00805
-0.06201
-0.04518
0.13260
-0.00152
-0.04065
-0.05960
0.00393
0.16974
-0.01125
-0.10882
-0.09371
0.18914
0.00606
-0.07668
-0.07655
-0.09545
-0.10719
0.00392
0.17563
-0.07907
-0.07655
-0.08798
-0.10719
-0.04005
0.15882
-0.04928
-0.03944
-0.08798
-0.09545
-0.09371
-0.05561
-0.05687
-0.01013
0.01759
-0.01013
-0.05687
-0.05561
-0.10882
-0.03944
-0.04928
0.15882
-0.04005
-0.01125
-0.07655
-0.07907
0.17563
0.00392
-0.07655
-0.07668
0.00606
0.18914
-0.01588
-0.06908
-0.07254
0.25459
0.03280
-0.07691
-0.06717
-0.07359
-0.06788
0.03347
0.24666
-0.06747
-0.07508
0.00137
-0.06788
-0.09484
0.26620
0.03780
-0.09605
0.00137
-0.07359
-0.07254
-0.09138
-0.09303
-0.00814
0.20323
-0.00814
-0.09303
-0.09138
-0.06908
-0.09605
0.03780
0.26620
-0.09484
-0.01588
-0.07508
-0.06747
0.24666
0.03347
-0.06717
-0.07691
0.03280
0.25459
0.10000
