# vtk DataFile Version 3.0
Point representing Sub_cellular elem model
ASCII

DATASET UNSTRUCTURED_GRID
POINTS 36 float
-39.63343 -22.94440 63.74935 
-39.69026 23.04560 62.96221 
0.07853 -42.15325 68.51614 
0.00000 0.00000 77.97858 
-0.07853 42.15325 68.51614 
39.69026 -23.04560 62.96221 
39.63343 22.94440 63.74935 
-32.64110 -20.84547 55.99771 
-32.60123 20.80249 55.75950 
-0.00908 -35.32176 60.03703 
0.00000 0.00000 67.72621 
0.00908 35.32176 60.03703 
32.60123 -20.80249 55.75950 
32.64110 20.84547 55.99771 
-26.84328 -17.69477 47.07658 
-26.81288 17.65474 47.04329 
-0.02533 -29.09173 50.34534 
0.00000 0.00000 56.62252 
0.02533 29.09173 50.34534 
26.81288 -17.65474 47.04329 
26.84328 17.69477 47.07658 
-22.17952 -14.46395 37.28313 
-22.16973 14.45345 37.31451 
-0.01841 -25.40847 40.27536 
0.00000 0.00000 47.02433 
0.01841 25.40847 40.27536 
22.16973 -14.45345 37.31451 
22.17952 14.46395 37.28313 
-14.14276 -11.59835 28.61377 
-14.16042 11.61069 28.67534 
-0.01475 -18.25671 30.25411 
0.00000 0.00000 34.58505 
0.01475 18.25671 30.25411 
14.16042 -11.61069 28.67534 
14.14276 11.59835 28.61377 
0.00000 0.00000 -0.10000 
CELLS 233 698
2 0 1
2 0 2
2 0 3
2 1 3
2 1 4
2 2 3
2 2 5
2 3 4
2 3 5
2 3 6
2 4 6
2 5 6
2 7 8
2 7 9
2 7 10
2 8 10
2 8 11
2 9 10
2 9 12
2 10 11
2 10 12
2 10 13
2 11 13
2 12 13
2 14 15
2 14 16
2 14 17
2 15 17
2 15 18
2 16 17
2 16 19
2 17 18
2 17 19
2 17 20
2 18 20
2 19 20
2 21 22
2 21 23
2 21 24
2 22 24
2 22 25
2 23 24
2 23 26
2 24 25
2 24 26
2 24 27
2 25 27
2 26 27
2 28 29
2 28 30
2 28 31
2 29 31
2 29 32
2 30 31
2 30 33
2 31 32
2 31 33
2 31 34
2 32 34
2 33 34
2 0 1
2 0 2
2 0 3
2 0 7
2 0 8
2 0 9
2 0 10
2 1 3
2 1 4
2 1 7
2 1 8
2 1 10
2 1 11
2 2 3
2 2 5
2 2 7
2 2 9
2 2 10
2 2 12
2 3 4
2 3 5
2 3 6
2 3 7
2 3 8
2 3 9
2 3 10
2 3 11
2 3 12
2 3 13
2 4 6
2 4 8
2 4 10
2 4 11
2 4 13
2 5 6
2 5 9
2 5 10
2 5 12
2 5 13
2 6 10
2 6 11
2 6 12
2 6 13
2 7 8
2 7 9
2 7 10
2 7 14
2 7 15
2 7 16
2 7 17
2 8 10
2 8 11
2 8 14
2 8 15
2 8 17
2 8 18
2 9 10
2 9 12
2 9 14
2 9 16
2 9 17
2 9 19
2 10 11
2 10 12
2 10 13
2 10 14
2 10 15
2 10 16
2 10 17
2 10 18
2 10 19
2 10 20
2 11 13
2 11 15
2 11 17
2 11 18
2 11 20
2 12 13
2 12 16
2 12 17
2 12 19
2 12 20
2 13 17
2 13 18
2 13 19
2 13 20
2 14 15
2 14 16
2 14 17
2 14 21
2 14 22
2 14 23
2 14 24
2 15 17
2 15 18
2 15 21
2 15 22
2 15 24
2 15 25
2 16 17
2 16 19
2 16 21
2 16 23
2 16 24
2 16 26
2 17 18
2 17 19
2 17 20
2 17 21
2 17 22
2 17 23
2 17 24
2 17 25
2 17 26
2 17 27
2 18 20
2 18 22
2 18 24
2 18 25
2 18 27
2 19 20
2 19 23
2 19 24
2 19 26
2 19 27
2 20 24
2 20 25
2 20 26
2 20 27
2 21 22
2 21 23
2 21 24
2 21 28
2 21 29
2 21 30
2 21 31
2 22 24
2 22 25
2 22 28
2 22 29
2 22 31
2 22 32
2 23 24
2 23 26
2 23 28
2 23 30
2 23 31
2 23 33
2 24 25
2 24 26
2 24 27
2 24 28
2 24 29
2 24 30
2 24 31
2 24 32
2 24 33
2 24 34
2 25 27
2 25 29
2 25 31
2 25 32
2 25 34
2 26 27
2 26 30
2 26 31
2 26 33
2 26 34
2 27 31
2 27 32
2 27 33
2 27 34
1 35
CELL_TYPES 233
3
3
3
3
3
3
3
3
3
3
3
3
3
3
3
3
3
3
3
3
3
3
3
3
3
3
3
3
3
3
3
3
3
3
3
3
3
3
3
3
3
3
3
3
3
3
3
3
3
3
3
3
3
3
3
3
3
3
3
3
3
3
3
3
3
3
3
3
3
3
3
3
3
3
3
3
3
3
3
3
3
3
3
3
3
3
3
3
3
3
3
3
3
3
3
3
3
3
3
3
3
3
3
3
3
3
3
3
3
3
3
3
3
3
3
3
3
3
3
3
3
3
3
3
3
3
3
3
3
3
3
3
3
3
3
3
3
3
3
3
3
3
3
3
3
3
3
3
3
3
3
3
3
3
3
3
3
3
3
3
3
3
3
3
3
3
3
3
3
3
3
3
3
3
3
3
3
3
3
3
3
3
3
3
3
3
3
3
3
3
3
3
3
3
3
3
3
3
3
3
3
3
3
3
3
3
3
3
3
3
3
3
3
3
3
3
3
3
3
3
3
3
3
3
3
3
3
3
3
3
3
3
1
CELL_DATA 233
SCALARS Strain double 1
LOOKUP_TABLE default
0.00371
-0.11022
0.05528
0.04726
-0.10928
0.00609
-0.10928
0.00609
0.04726
0.05528
-0.11022
0.00371
0.00382
0.03796
0.12919
0.12855
0.03737
0.05879
0.03737
0.05879
0.12855
0.12919
0.03796
0.00382
0.01588
0.20412
0.17487
0.17621
0.20263
0.16080
0.20263
0.16080
0.17621
0.17487
0.20412
0.01588
-0.00096
0.11347
0.13907
0.13957
0.11293
0.01349
0.11293
0.01349
0.13957
0.13907
0.11347
-0.00096
-0.01367
0.23877
0.10947
0.10997
0.23890
-0.01919
0.23890
-0.01919
0.10997
0.10947
0.23877
-0.01367
-0.04167
0.04540
-0.00086
0.06482
-0.01916
0.02003
0.00143
0.00611
0.04441
-0.01975
0.03520
0.00523
0.01951
0.01787
0.04441
0.00353
0.08891
0.03184
0.00204
0.01787
0.00611
-0.00086
-0.02985
-0.02835
-0.03041
0.02524
-0.03041
-0.02835
-0.02985
0.04540
0.00204
0.03184
0.08891
0.00353
-0.04167
0.01951
0.00523
0.03520
-0.01975
0.00143
0.02003
-0.01916
0.06482
-0.00401
-0.02844
-0.03228
0.10963
0.00197
-0.04098
-0.02864
-0.03191
-0.02776
0.00014
0.09263
-0.02995
-0.04148
-0.02243
-0.02776
-0.02665
0.15214
-0.00238
-0.02599
-0.02243
-0.03191
-0.03228
-0.04177
-0.04232
-0.04731
0.11037
-0.04731
-0.04232
-0.04177
-0.02844
-0.02599
-0.00238
0.15214
-0.02665
-0.00401
-0.04148
-0.02995
0.09263
0.00014
-0.02864
-0.04098
0.00197
0.10963
-0.00803
-0.06953
-0.05887
0.13181
0.00043
-0.05328
-0.05179
-0.05988
-0.06833
-0.00058
0.12452
-0.05319
-0.05299
-0.05559
-0.06833
-0.02499
0.07224
-0.03509
-0.02426
-0.05559
-0.05988
-0.05887
-0.03295
-0.03383
-0.00437
-0.04018
-0.00437
-0.03383
-0.03295
-0.06953
-0.02426
-0.03509
0.07224
-0.02499
-0.00803
-0.05299
-0.05319
0.12452
-0.00058
-0.05179
-0.05328
0.00043
0.13181
-0.01826
-0.04419
-0.04215
0.21639
0.02061
-0.06588
-0.05038
-0.04296
-0.04323
0.02095
0.21189
-0.05076
-0.06471
0.00928
-0.04323
-0.09049
0.23115
0.03237
-0.09069
0.00928
-0.04296
-0.04215
-0.07409
-0.07510
-0.01711
0.24393
-0.01711
-0.07510
-0.07409
-0.04419
-0.09069
0.03237
0.23115
-0.09049
-0.01826
-0.06471
-0.05076
0.21189
0.02095
-0.05038
-0.06588
0.02061
0.21639
0.10000
