# vtk DataFile Version 3.0
Point representing Sub_cellular elem model
ASCII

DATASET UNSTRUCTURED_GRID
POINTS 36 float
-39.63697 -23.29038 63.93975 
-39.59544 23.27186 63.24148 
0.04422 -42.23328 68.66841 
-0.00000 0.00000 77.14819 
-0.04422 42.23328 68.66841 
39.59544 -23.27186 63.24148 
39.63697 23.29038 63.93975 
-32.73351 -20.81936 56.11794 
-32.68567 20.75825 55.95178 
-0.01796 -35.55933 60.02349 
-0.00000 0.00000 67.23009 
0.01796 35.55933 60.02349 
32.68567 -20.75825 55.95178 
32.73351 20.81936 56.11794 
-26.84998 -17.71046 47.18398 
-26.82895 17.69086 47.20510 
-0.02128 -29.02356 50.32555 
-0.00000 0.00000 56.19534 
0.02128 29.02356 50.32555 
26.82895 -17.69086 47.20510 
26.84998 17.71046 47.18398 
-22.32689 -14.56314 37.40507 
-22.32772 14.57821 37.48516 
-0.01752 -25.35218 40.03814 
-0.00000 0.00000 46.27791 
0.01752 25.35218 40.03814 
22.32772 -14.57821 37.48516 
22.32689 14.56314 37.40507 
-15.40468 -11.72031 28.54029 
-15.44583 11.77125 28.65944 
-0.00908 -19.16626 30.14913 
-0.00000 0.00000 35.02241 
0.00908 19.16626 30.14913 
15.44583 -11.77125 28.65944 
15.40468 11.72031 28.54029 
0.00000 0.00000 -0.10000 
CELLS 233 698
2 0 1
2 0 2
2 0 3
2 1 3
2 1 4
2 2 3
2 2 5
2 3 4
2 3 5
2 3 6
2 4 6
2 5 6
2 7 8
2 7 9
2 7 10
2 8 10
2 8 11
2 9 10
2 9 12
2 10 11
2 10 12
2 10 13
2 11 13
2 12 13
2 14 15
2 14 16
2 14 17
2 15 17
2 15 18
2 16 17
2 16 19
2 17 18
2 17 19
2 17 20
2 18 20
2 19 20
2 21 22
2 21 23
2 21 24
2 22 24
2 22 25
2 23 24
2 23 26
2 24 25
2 24 26
2 24 27
2 25 27
2 26 27
2 28 29
2 28 30
2 28 31
2 29 31
2 29 32
2 30 31
2 30 33
2 31 32
2 31 33
2 31 34
2 32 34
2 33 34
2 0 1
2 0 2
2 0 3
2 0 7
2 0 8
2 0 9
2 0 10
2 1 3
2 1 4
2 1 7
2 1 8
2 1 10
2 1 11
2 2 3
2 2 5
2 2 7
2 2 9
2 2 10
2 2 12
2 3 4
2 3 5
2 3 6
2 3 7
2 3 8
2 3 9
2 3 10
2 3 11
2 3 12
2 3 13
2 4 6
2 4 8
2 4 10
2 4 11
2 4 13
2 5 6
2 5 9
2 5 10
2 5 12
2 5 13
2 6 10
2 6 11
2 6 12
2 6 13
2 7 8
2 7 9
2 7 10
2 7 14
2 7 15
2 7 16
2 7 17
2 8 10
2 8 11
2 8 14
2 8 15
2 8 17
2 8 18
2 9 10
2 9 12
2 9 14
2 9 16
2 9 17
2 9 19
2 10 11
2 10 12
2 10 13
2 10 14
2 10 15
2 10 16
2 10 17
2 10 18
2 10 19
2 10 20
2 11 13
2 11 15
2 11 17
2 11 18
2 11 20
2 12 13
2 12 16
2 12 17
2 12 19
2 12 20
2 13 17
2 13 18
2 13 19
2 13 20
2 14 15
2 14 16
2 14 17
2 14 21
2 14 22
2 14 23
2 14 24
2 15 17
2 15 18
2 15 21
2 15 22
2 15 24
2 15 25
2 16 17
2 16 19
2 16 21
2 16 23
2 16 24
2 16 26
2 17 18
2 17 19
2 17 20
2 17 21
2 17 22
2 17 23
2 17 24
2 17 25
2 17 26
2 17 27
2 18 20
2 18 22
2 18 24
2 18 25
2 18 27
2 19 20
2 19 23
2 19 24
2 19 26
2 19 27
2 20 24
2 20 25
2 20 26
2 20 27
2 21 22
2 21 23
2 21 24
2 21 28
2 21 29
2 21 30
2 21 31
2 22 24
2 22 25
2 22 28
2 22 29
2 22 31
2 22 32
2 23 24
2 23 26
2 23 28
2 23 30
2 23 31
2 23 33
2 24 25
2 24 26
2 24 27
2 24 28
2 24 29
2 24 30
2 24 31
2 24 32
2 24 33
2 24 34
2 25 27
2 25 29
2 25 31
2 25 32
2 25 34
2 26 27
2 26 30
2 26 31
2 26 33
2 26 34
2 27 31
2 27 32
2 27 33
2 27 34
1 35
CELL_TYPES 233
3
3
3
3
3
3
3
3
3
3
3
3
3
3
3
3
3
3
3
3
3
3
3
3
3
3
3
3
3
3
3
3
3
3
3
3
3
3
3
3
3
3
3
3
3
3
3
3
3
3
3
3
3
3
3
3
3
3
3
3
3
3
3
3
3
3
3
3
3
3
3
3
3
3
3
3
3
3
3
3
3
3
3
3
3
3
3
3
3
3
3
3
3
3
3
3
3
3
3
3
3
3
3
3
3
3
3
3
3
3
3
3
3
3
3
3
3
3
3
3
3
3
3
3
3
3
3
3
3
3
3
3
3
3
3
3
3
3
3
3
3
3
3
3
3
3
3
3
3
3
3
3
3
3
3
3
3
3
3
3
3
3
3
3
3
3
3
3
3
3
3
3
3
3
3
3
3
3
3
3
3
3
3
3
3
3
3
3
3
3
3
3
3
3
3
3
3
3
3
3
3
3
3
3
3
3
3
3
3
3
3
3
3
3
3
3
3
3
3
3
3
3
3
3
3
3
3
3
3
3
3
3
1
CELL_DATA 233
SCALARS Strain double 1
LOOKUP_TABLE default
-0.03410
-0.12529
0.07846
0.08194
-0.12585
0.02253
-0.12585
0.02253
0.08194
0.07846
-0.12529
-0.03410
-0.00672
0.01697
0.15531
0.15462
0.01788
0.05767
0.01788
0.05767
0.15462
0.15531
0.01697
-0.00672
0.01417
0.20382
0.18895
0.18777
0.20485
0.18243
0.20485
0.18243
0.18777
0.18895
0.20382
0.01417
-0.01066
0.11466
0.14874
0.14806
0.11544
0.01745
0.11544
0.01745
0.14806
0.14874
0.11466
-0.01066
0.00931
0.18377
0.05590
0.05708
0.18518
-0.03912
0.18518
-0.03912
0.05708
0.05590
0.18377
0.00931
-0.02978
0.04195
-0.00341
0.07212
-0.01305
0.01958
0.00410
-0.00019
0.04128
-0.01559
0.03538
0.00432
0.01812
0.01490
0.04128
0.00625
0.09216
0.03422
0.00563
0.01490
-0.00019
-0.00341
-0.03868
-0.03834
-0.03406
-0.00819
-0.03406
-0.03834
-0.03868
0.04195
0.00563
0.03422
0.09216
0.00625
-0.02978
0.01812
0.00432
0.03538
-0.01559
0.00410
0.01958
-0.01305
0.07212
-0.00570
-0.02390
-0.03498
0.11398
0.00226
-0.03801
-0.02717
-0.03556
-0.02302
0.00019
0.09642
-0.02898
-0.03852
-0.01883
-0.02302
-0.02477
0.16947
0.00544
-0.02439
-0.01883
-0.03556
-0.03498
-0.04957
-0.05045
-0.05576
0.10347
-0.05576
-0.05045
-0.04957
-0.02390
-0.02439
0.00544
0.16947
-0.02477
-0.00570
-0.03852
-0.02898
0.09642
0.00019
-0.02717
-0.03801
0.00226
0.11398
-0.00658
-0.07069
-0.06265
0.12245
0.00322
-0.05093
-0.05100
-0.06357
-0.06990
0.00302
0.11546
-0.05181
-0.05015
-0.06035
-0.06990
-0.02600
0.09229
-0.03431
-0.02632
-0.06035
-0.06357
-0.06265
-0.03814
-0.03928
-0.00930
-0.00826
-0.00930
-0.03928
-0.03814
-0.07069
-0.02632
-0.03431
0.09229
-0.02600
-0.00658
-0.05015
-0.05181
0.11546
0.00302
-0.05100
-0.05093
0.00322
0.12245
-0.01066
-0.04327
-0.04620
0.16011
0.02001
-0.05181
-0.04514
-0.04677
-0.04260
0.02139
0.15384
-0.04457
-0.05025
0.00234
-0.04260
-0.06611
0.16644
0.02466
-0.06760
0.00234
-0.04677
-0.04620
-0.06329
-0.06447
-0.00682
0.12555
-0.00682
-0.06447
-0.06329
-0.04327
-0.06760
0.02466
0.16644
-0.06611
-0.01066
-0.05025
-0.04457
0.15384
0.02139
-0.04514
-0.05181
0.02001
0.16011
0.10000
