# vtk DataFile Version 3.0
Point representing Sub_cellular elem model
ASCII

DATASET UNSTRUCTURED_GRID
POINTS 36 float
-40.09045 -22.11559 64.99149 
-39.77785 22.26446 60.49984 
0.44294 -43.07670 73.54391 
0.00000 0.00000 77.52728 
-0.44294 43.07670 73.54391 
39.77785 -22.26446 60.49984 
40.09045 22.11559 64.99149 
-31.37502 -20.86513 57.92730 
-31.07460 20.66345 56.52078 
-0.00330 -35.11825 63.10192 
0.00000 0.00000 67.80358 
0.00330 35.11825 63.10192 
31.07460 -20.66345 56.52078 
31.37502 20.86513 57.92730 
-24.97182 -17.61793 47.92789 
-24.79797 17.46679 47.52752 
-0.10189 -27.90878 51.23712 
0.00000 0.00000 55.63765 
0.10189 27.90878 51.23712 
24.79797 -17.46679 47.52752 
24.97182 17.61793 47.92789 
-20.78869 -14.37408 36.54651 
-20.69790 14.33265 36.46063 
-0.07196 -25.45105 39.30222 
0.00000 0.00000 45.26347 
0.07196 25.45105 39.30222 
20.69790 -14.33265 36.46063 
20.78869 14.37408 36.54651 
-11.79991 -11.65155 26.68638 
-11.72445 11.63849 26.70488 
-0.06250 -17.60106 27.85008 
0.00000 0.00000 31.85450 
0.06250 17.60106 27.85008 
11.72445 -11.63849 26.70488 
11.79991 11.65155 26.68638 
0.00000 0.00000 -0.10000 
CELLS 233 698
2 0 1
2 0 2
2 0 3
2 1 3
2 1 4
2 2 3
2 2 5
2 3 4
2 3 5
2 3 6
2 4 6
2 5 6
2 7 8
2 7 9
2 7 10
2 8 10
2 8 11
2 9 10
2 9 12
2 10 11
2 10 12
2 10 13
2 11 13
2 12 13
2 14 15
2 14 16
2 14 17
2 15 17
2 15 18
2 16 17
2 16 19
2 17 18
2 17 19
2 17 20
2 18 20
2 19 20
2 21 22
2 21 23
2 21 24
2 22 24
2 22 25
2 23 24
2 23 26
2 24 25
2 24 26
2 24 27
2 25 27
2 26 27
2 28 29
2 28 30
2 28 31
2 29 31
2 29 32
2 30 31
2 30 33
2 31 32
2 31 33
2 31 34
2 32 34
2 33 34
2 0 1
2 0 2
2 0 3
2 0 7
2 0 8
2 0 9
2 0 10
2 1 3
2 1 4
2 1 7
2 1 8
2 1 10
2 1 11
2 2 3
2 2 5
2 2 7
2 2 9
2 2 10
2 2 12
2 3 4
2 3 5
2 3 6
2 3 7
2 3 8
2 3 9
2 3 10
2 3 11
2 3 12
2 3 13
2 4 6
2 4 8
2 4 10
2 4 11
2 4 13
2 5 6
2 5 9
2 5 10
2 5 12
2 5 13
2 6 10
2 6 11
2 6 12
2 6 13
2 7 8
2 7 9
2 7 10
2 7 14
2 7 15
2 7 16
2 7 17
2 8 10
2 8 11
2 8 14
2 8 15
2 8 17
2 8 18
2 9 10
2 9 12
2 9 14
2 9 16
2 9 17
2 9 19
2 10 11
2 10 12
2 10 13
2 10 14
2 10 15
2 10 16
2 10 17
2 10 18
2 10 19
2 10 20
2 11 13
2 11 15
2 11 17
2 11 18
2 11 20
2 12 13
2 12 16
2 12 17
2 12 19
2 12 20
2 13 17
2 13 18
2 13 19
2 13 20
2 14 15
2 14 16
2 14 17
2 14 21
2 14 22
2 14 23
2 14 24
2 15 17
2 15 18
2 15 21
2 15 22
2 15 24
2 15 25
2 16 17
2 16 19
2 16 21
2 16 23
2 16 24
2 16 26
2 17 18
2 17 19
2 17 20
2 17 21
2 17 22
2 17 23
2 17 24
2 17 25
2 17 26
2 17 27
2 18 20
2 18 22
2 18 24
2 18 25
2 18 27
2 19 20
2 19 23
2 19 24
2 19 26
2 19 27
2 20 24
2 20 25
2 20 26
2 20 27
2 21 22
2 21 23
2 21 24
2 21 28
2 21 29
2 21 30
2 21 31
2 22 24
2 22 25
2 22 28
2 22 29
2 22 31
2 22 32
2 23 24
2 23 26
2 23 28
2 23 30
2 23 31
2 23 33
2 24 25
2 24 26
2 24 27
2 24 28
2 24 29
2 24 30
2 24 31
2 24 32
2 24 33
2 24 34
2 25 27
2 25 29
2 25 31
2 25 32
2 25 34
2 26 27
2 26 30
2 26 31
2 26 33
2 26 34
2 27 31
2 27 32
2 27 33
2 27 34
1 35
CELL_TYPES 233
3
3
3
3
3
3
3
3
3
3
3
3
3
3
3
3
3
3
3
3
3
3
3
3
3
3
3
3
3
3
3
3
3
3
3
3
3
3
3
3
3
3
3
3
3
3
3
3
3
3
3
3
3
3
3
3
3
3
3
3
3
3
3
3
3
3
3
3
3
3
3
3
3
3
3
3
3
3
3
3
3
3
3
3
3
3
3
3
3
3
3
3
3
3
3
3
3
3
3
3
3
3
3
3
3
3
3
3
3
3
3
3
3
3
3
3
3
3
3
3
3
3
3
3
3
3
3
3
3
3
3
3
3
3
3
3
3
3
3
3
3
3
3
3
3
3
3
3
3
3
3
3
3
3
3
3
3
3
3
3
3
3
3
3
3
3
3
3
3
3
3
3
3
3
3
3
3
3
3
3
3
3
3
3
3
3
3
3
3
3
3
3
3
3
3
3
3
3
3
3
3
3
3
3
3
3
3
3
3
3
3
3
3
3
3
3
3
3
3
3
3
3
3
3
3
3
3
3
3
3
3
3
1
CELL_DATA 233
SCALARS Strain double 1
LOOKUP_TABLE default
-0.03189
-0.20510
0.15845
0.15748
-0.20273
0.01961
-0.20273
0.01961
0.15748
0.15845
-0.20510
-0.03189
0.00041
0.05533
0.34959
0.34237
0.05643
0.15319
0.05643
0.15319
0.34237
0.34959
0.05533
0.00041
0.03068
0.52277
0.44016
0.43713
0.52589
0.40680
0.52589
0.40680
0.43713
0.44016
0.52277
0.03068
-0.00823
0.23838
0.31850
0.31674
0.24088
0.01767
0.24088
0.01767
0.31674
0.31850
0.23838
-0.00823
-0.01022
0.56308
0.16072
0.15749
0.57201
-0.05627
0.57201
-0.05627
0.15749
0.16072
0.56308
-0.01022
-0.07060
0.09385
-0.01095
0.12882
-0.02986
0.03245
-0.00066
0.01385
0.09260
-0.04110
-0.02973
0.00575
0.02515
0.01930
0.09260
0.02371
0.31367
0.06364
0.01809
0.01930
0.01385
-0.01095
-0.07472
-0.06707
-0.07083
-0.02763
-0.07083
-0.06707
-0.07472
0.09385
0.01809
0.06364
0.31367
0.02371
-0.07060
0.02515
0.00575
-0.02973
-0.04110
-0.00066
0.03245
-0.02986
0.12882
-0.00628
-0.05772
-0.06849
0.23099
0.00957
-0.07939
-0.05336
-0.06768
-0.05618
-0.00429
0.14233
-0.06391
-0.08801
-0.04183
-0.05618
-0.04254
0.38838
0.00932
-0.03871
-0.04183
-0.06768
-0.06849
-0.08579
-0.08506
-0.08759
0.21659
-0.08759
-0.08506
-0.08579
-0.05772
-0.03871
0.00932
0.38838
-0.04254
-0.00628
-0.08801
-0.06391
0.14233
-0.00429
-0.05336
-0.07939
0.00957
0.23099
-0.01539
-0.13948
-0.11554
0.25521
0.00906
-0.09406
-0.09525
-0.11893
-0.13514
0.00036
0.22110
-0.10294
-0.09757
-0.10343
-0.13514
-0.05236
0.21853
-0.05946
-0.04759
-0.10343
-0.11893
-0.11554
-0.06585
-0.06662
-0.00339
0.03742
-0.00339
-0.06662
-0.06585
-0.13948
-0.04759
-0.05946
0.21853
-0.05236
-0.01539
-0.09757
-0.10294
0.22110
0.00036
-0.09525
-0.09406
0.00906
0.25521
-0.02541
-0.09193
-0.09235
0.36175
0.04366
-0.09969
-0.08285
-0.09455
-0.08901
0.04013
0.35262
-0.08685
-0.09951
0.00354
-0.08901
-0.12491
0.38843
0.05142
-0.12356
0.00354
-0.09455
-0.09235
-0.11154
-0.11353
-0.01832
0.34090
-0.01832
-0.11353
-0.11154
-0.09193
-0.12356
0.05142
0.38843
-0.12491
-0.02541
-0.09951
-0.08685
0.35262
0.04013
-0.08285
-0.09969
0.04366
0.36175
0.10000
