# vtk DataFile Version 3.0
Point representing Sub_cellular elem model
ASCII

DATASET UNSTRUCTURED_GRID
POINTS 36 float
-39.59550 -22.98861 63.67501 
-39.65342 23.08673 62.95804 
0.07226 -42.07774 68.35994 
0.00000 0.00000 78.01430 
-0.07226 42.07774 68.35994 
39.65342 -23.08673 62.95804 
39.59550 22.98861 63.67501 
-32.70058 -20.84910 55.90971 
-32.66436 20.80920 55.69340 
-0.00876 -35.33359 59.90292 
0.00000 0.00000 67.75260 
0.00876 35.33359 59.90292 
32.66436 -20.80920 55.69340 
32.70058 20.84910 55.90971 
-26.93920 -17.69984 47.04162 
-26.91122 17.66160 47.01245 
-0.02374 -29.15555 50.30018 
0.00000 0.00000 56.69501 
0.02374 29.15555 50.30018 
26.91122 -17.66160 47.01245 
26.93920 17.69984 47.04162 
-22.25134 -14.46969 37.32741 
-22.24250 14.45891 37.35751 
-0.01702 -25.40235 40.32371 
0.00000 0.00000 47.11693 
0.01702 25.40235 40.32371 
22.24250 -14.45891 37.35751 
22.25134 14.46969 37.32741 
-14.26838 -11.59530 28.71424 
-14.28605 11.60604 28.77200 
-0.01398 -18.28678 30.37229 
0.00000 0.00000 34.72372 
0.01398 18.28678 30.37229 
14.28605 -11.60604 28.77200 
14.26838 11.59530 28.71424 
0.00000 0.00000 -0.10000 
CELLS 233 698
2 0 1
2 0 2
2 0 3
2 1 3
2 1 4
2 2 3
2 2 5
2 3 4
2 3 5
2 3 6
2 4 6
2 5 6
2 7 8
2 7 9
2 7 10
2 8 10
2 8 11
2 9 10
2 9 12
2 10 11
2 10 12
2 10 13
2 11 13
2 12 13
2 14 15
2 14 16
2 14 17
2 15 17
2 15 18
2 16 17
2 16 19
2 17 18
2 17 19
2 17 20
2 18 20
2 19 20
2 21 22
2 21 23
2 21 24
2 22 24
2 22 25
2 23 24
2 23 26
2 24 25
2 24 26
2 24 27
2 25 27
2 26 27
2 28 29
2 28 30
2 28 31
2 29 31
2 29 32
2 30 31
2 30 33
2 31 32
2 31 33
2 31 34
2 32 34
2 33 34
2 0 1
2 0 2
2 0 3
2 0 7
2 0 8
2 0 9
2 0 10
2 1 3
2 1 4
2 1 7
2 1 8
2 1 10
2 1 11
2 2 3
2 2 5
2 2 7
2 2 9
2 2 10
2 2 12
2 3 4
2 3 5
2 3 6
2 3 7
2 3 8
2 3 9
2 3 10
2 3 11
2 3 12
2 3 13
2 4 6
2 4 8
2 4 10
2 4 11
2 4 13
2 5 6
2 5 9
2 5 10
2 5 12
2 5 13
2 6 10
2 6 11
2 6 12
2 6 13
2 7 8
2 7 9
2 7 10
2 7 14
2 7 15
2 7 16
2 7 17
2 8 10
2 8 11
2 8 14
2 8 15
2 8 17
2 8 18
2 9 10
2 9 12
2 9 14
2 9 16
2 9 17
2 9 19
2 10 11
2 10 12
2 10 13
2 10 14
2 10 15
2 10 16
2 10 17
2 10 18
2 10 19
2 10 20
2 11 13
2 11 15
2 11 17
2 11 18
2 11 20
2 12 13
2 12 16
2 12 17
2 12 19
2 12 20
2 13 17
2 13 18
2 13 19
2 13 20
2 14 15
2 14 16
2 14 17
2 14 21
2 14 22
2 14 23
2 14 24
2 15 17
2 15 18
2 15 21
2 15 22
2 15 24
2 15 25
2 16 17
2 16 19
2 16 21
2 16 23
2 16 24
2 16 26
2 17 18
2 17 19
2 17 20
2 17 21
2 17 22
2 17 23
2 17 24
2 17 25
2 17 26
2 17 27
2 18 20
2 18 22
2 18 24
2 18 25
2 18 27
2 19 20
2 19 23
2 19 24
2 19 26
2 19 27
2 20 24
2 20 25
2 20 26
2 20 27
2 21 22
2 21 23
2 21 24
2 21 28
2 21 29
2 21 30
2 21 31
2 22 24
2 22 25
2 22 28
2 22 29
2 22 31
2 22 32
2 23 24
2 23 26
2 23 28
2 23 30
2 23 31
2 23 33
2 24 25
2 24 26
2 24 27
2 24 28
2 24 29
2 24 30
2 24 31
2 24 32
2 24 33
2 24 34
2 25 27
2 25 29
2 25 31
2 25 32
2 25 34
2 26 27
2 26 30
2 26 31
2 26 33
2 26 34
2 27 31
2 27 32
2 27 33
2 27 34
1 35
CELL_TYPES 233
3
3
3
3
3
3
3
3
3
3
3
3
3
3
3
3
3
3
3
3
3
3
3
3
3
3
3
3
3
3
3
3
3
3
3
3
3
3
3
3
3
3
3
3
3
3
3
3
3
3
3
3
3
3
3
3
3
3
3
3
3
3
3
3
3
3
3
3
3
3
3
3
3
3
3
3
3
3
3
3
3
3
3
3
3
3
3
3
3
3
3
3
3
3
3
3
3
3
3
3
3
3
3
3
3
3
3
3
3
3
3
3
3
3
3
3
3
3
3
3
3
3
3
3
3
3
3
3
3
3
3
3
3
3
3
3
3
3
3
3
3
3
3
3
3
3
3
3
3
3
3
3
3
3
3
3
3
3
3
3
3
3
3
3
3
3
3
3
3
3
3
3
3
3
3
3
3
3
3
3
3
3
3
3
3
3
3
3
3
3
3
3
3
3
3
3
3
3
3
3
3
3
3
3
3
3
3
3
3
3
3
3
3
3
3
3
3
3
3
3
3
3
3
3
3
3
3
3
3
3
3
3
1
CELL_DATA 233
SCALARS Strain double 1
LOOKUP_TABLE default
0.00585
-0.10384
0.05013
0.04227
-0.10294
0.00471
-0.10294
0.00471
0.04227
0.05013
-0.10384
0.00585
0.00413
0.03686
0.11960
0.11917
0.03620
0.05437
0.03620
0.05437
0.11917
0.11960
0.03686
0.00413
0.01502
0.19117
0.16388
0.16530
0.18964
0.15057
0.18964
0.15057
0.16530
0.16388
0.19117
0.01502
-0.00058
0.10734
0.13092
0.13148
0.10673
0.01316
0.10673
0.01316
0.13148
0.13092
0.10734
-0.00058
-0.01400
0.22663
0.10708
0.10757
0.22654
-0.01742
0.22654
-0.01742
0.10757
0.10708
0.22663
-0.01400
-0.03991
0.04304
-0.00038
0.06027
-0.01845
0.01906
0.00139
0.00615
0.04214
-0.01884
0.03348
0.00505
0.01866
0.01714
0.04214
0.00306
0.08172
0.02992
0.00166
0.01714
0.00615
-0.00038
-0.02753
-0.02617
-0.02826
0.02617
-0.02826
-0.02617
-0.02753
0.04304
0.00166
0.02992
0.08172
0.00306
-0.03991
0.01866
0.00505
0.03348
-0.01884
0.00139
0.01906
-0.01845
0.06027
-0.00376
-0.02702
-0.03029
0.10342
0.00176
-0.03912
-0.02726
-0.02995
-0.02638
0.00013
0.08795
-0.02844
-0.03953
-0.02119
-0.02638
-0.02549
0.14185
-0.00259
-0.02487
-0.02119
-0.02995
-0.03029
-0.03919
-0.03973
-0.04473
0.10576
-0.04473
-0.03973
-0.03919
-0.02702
-0.02487
-0.00259
0.14185
-0.02549
-0.00376
-0.03953
-0.02844
0.08795
0.00013
-0.02726
-0.03912
0.00176
0.10342
-0.00770
-0.06601
-0.05578
0.12594
0.00016
-0.05103
-0.04934
-0.05674
-0.06487
-0.00075
0.11925
-0.05065
-0.05073
-0.05282
-0.06487
-0.02352
0.06591
-0.03350
-0.02283
-0.05282
-0.05674
-0.05578
-0.03095
-0.03179
-0.00411
-0.04219
-0.00411
-0.03179
-0.03095
-0.06601
-0.02283
-0.03350
0.06591
-0.02352
-0.00770
-0.05073
-0.05065
0.11925
-0.00075
-0.04934
-0.05103
0.00016
0.12594
-0.01788
-0.04186
-0.03957
0.20904
0.01954
-0.06389
-0.04847
-0.04034
-0.04096
0.01987
0.20481
-0.04884
-0.06275
0.00949
-0.04096
-0.08850
0.22337
0.03135
-0.08863
0.00949
-0.04034
-0.03957
-0.07189
-0.07282
-0.01691
0.23932
-0.01691
-0.07282
-0.07189
-0.04186
-0.08863
0.03135
0.22337
-0.08850
-0.01788
-0.06275
-0.04884
0.20481
0.01987
-0.04847
-0.06389
0.01954
0.20904
0.10000
